 Gaussian 16, Revision C.01,

 ----------------------------------------------------------------------
 #p ub3lyp/gen stable=opt scf=(maxcycle=900,verytightlineq,xqc) integra
 l=grid=ultrafine symmetry=None density=current iop(99/18=-1) output=wf
 n
 ----------------------------------------------------------------------

 0001_q000_m01_k00_opt_uwb97xd_def2svpd/0001_q000_m01_k00_force_ub3lyp_
 def2tzvpd stable-force
 ----------------------------------------------------------------------
 Symbolic Z-matrix:
 Charge =  0 Multiplicity = 1

 SCF Done:  E(UB3LYP) =  -149.995332274     A.U. after   12 cycles
 Normal termination of Gaussian 16 at Tue Jan  3 09:07:15 2023.
 Gaussian 16:  ES64L-G16RevC.01  3-Jul-2019

 ----------------------------------------------------------------------
 #p ub3lyp/chkbasis force guess=read geom=check scf=(maxcycle=900,veryt
 ightlineq,xqc) integral=grid=ultrafine symmetry=None density=current p
 op=(cm5,hlygat,mbs,npa) output=wfx
 ----------------------------------------------------------------------

 0001_q000_m01_k00_opt_uwb97xd_def2svpd/0001_q000_m01_k00_force_ub3lyp_
 def2tzvpd stable-force
 ----------------------------------------------------------------------
 Structure from the checkpoint file:  "0001_q000_m01_k00_force_ub3lyp_def2tzvpd.chk"
 Charge =  0 Multiplicity = 1

                          Input orientation:
 ---------------------------------------------------------------------
 Center     Atomic      Atomic             Coordinates (Angstroms)
 Number     Number       Type             X           Y           Z
 ---------------------------------------------------------------------
      1          6           0        1.072617   -0.070199   -0.153013
      2          7           0        2.377944   -0.089746   -0.254385
      3          7           0        3.083355   -0.368470   -1.308729
      4          1           0        4.064049   -0.292670   -1.047637
      5          1           0        0.639963    0.185154    0.808526
      6          1           0        0.483044   -0.309980   -1.033725
      7          1           0        2.867498    0.145880    0.613132
 ---------------------------------------------------------------------

 SCF Done:  E(UB3LYP) =  -149.995332274     A.U. after    1 cycles

 Alpha  occ. eigenvalues --  -14.43970 -14.30522 -10.19949  -1.04354  -0.81233
 Alpha  occ. eigenvalues --   -0.64882  -0.57007  -0.48867  -0.43457  -0.42324
 Alpha  occ. eigenvalues --   -0.28773  -0.20512
 Alpha virt. eigenvalues --   -0.02966  -0.01392   0.02730   0.04723   0.08346
 Alpha virt. eigenvalues --    0.09985   0.10073   0.10854   0.15569   0.16248
 Alpha virt. eigenvalues --    0.16354   0.18451   0.18713   0.20580   0.21893

  Beta  occ. eigenvalues --  -14.43970 -14.30522 -10.19949  -1.04354  -0.81233
  Beta  occ. eigenvalues --   -0.64882  -0.57007  -0.48867  -0.43457  -0.42324
  Beta  occ. eigenvalues --   -0.28773  -0.20512
  Beta virt. eigenvalues --   -0.02966  -0.01392   0.02730   0.04723   0.08346
  Beta virt. eigenvalues --    0.09985   0.10073   0.10854   0.15569   0.16248
  Beta virt. eigenvalues --    0.16354   0.18451   0.18713   0.20580   0.21893

 Mulliken charges and spin densities:
               1          2
     1  C   -0.449286  -0.000000
     2  N    0.343388  -0.000000
     3  N   -0.772129   0.000000
     4  H    0.161258  -0.000000
     5  H    0.228365   0.000000
     6  H    0.281302  -0.000000
     7  H    0.207103  -0.000000
 Sum of Mulliken charges =  -0.00000  -0.00000

 Dipole moment (field-independent basis, Debye):
    X=              0.2425    Y=              0.7857    Z=              2.9237  Tot=              3.0371
 Quadrupole moment (field-independent basis, Debye-Ang):
   XX=            -14.6900   YY=            -21.5574   ZZ=            -22.8450
   XY=              2.3007   XZ=              8.4603   YZ=             -0.4346

 ESP charges:
               1
     1  C   -0.582957
     2  N    0.289222
     3  N   -0.674705
     4  H    0.289064
     5  H    0.183434
     6  H    0.272644
     7  H    0.223298
 Sum of ESP charges =   0.00000

 Summary of Natural Population Analysis:

                                       Natural Population
                Natural  -----------------------------------------------
    Atom  No    Charge         Core      Valence    Rydberg      Total
 -----------------------------------------------------------------------
      C    1   -0.14246      0.99974     2.12920    0.01352     3.14246
      N    2   -0.10290      0.99976     2.58728    0.01587     3.60290
      N    3   -0.28424      0.99983     2.76448    0.01994     3.78424
      H    4    0.15317      0.00000     0.34399    0.00284     0.34683
      H    5    0.09434      0.00000     0.40313    0.00253     0.40566
      H    6    0.09986      0.00000     0.39772    0.00242     0.40014
      H    7    0.18223      0.00000     0.31504    0.00273     0.31777
 =======================================================================
   * Total *   -0.00000      2.99932     8.94084    0.05984    12.00000

 Normal termination of Gaussian 16 at Tue Jan  3 09:07:35 2023.
