 Gaussian 16, Revision C.01,

 ----------------------------------------------------------------------
 #p uwb97xd/gen stable=opt scf=(maxcycle=900,verytightlineq,xqc) integr
 al=grid=ultrafine symmetry=None density=current iop(99/18=-1) output=w
 fn
 ----------------------------------------------------------------------

 0001_q000_m01_k00_opt_uwb97xd_def2svpd/0001_q000_m01_k00_force_uwb97xd
 _def2qzvpd stable-force
 ----------------------------------------------------------------------
 Symbolic Z-matrix:
 Charge =  0 Multiplicity = 1

 SCF Done:  E(UwB97XD) =  -149.945374098     A.U. after   12 cycles
 Normal termination of Gaussian 16 at Tue Jan  3 09:32:21 2023.
 Gaussian 16:  ES64L-G16RevC.01  3-Jul-2019

 ----------------------------------------------------------------------
 #p uwb97xd/chkbasis force guess=read geom=check scf=(maxcycle=900,very
 tightlineq,xqc) integral=grid=ultrafine symmetry=None density=current
 pop=(cm5,hlygat,mbs,npa) output=wfx
 ----------------------------------------------------------------------

 0001_q000_m01_k00_opt_uwb97xd_def2svpd/0001_q000_m01_k00_force_uwb97xd
 _def2qzvpd stable-force
 ----------------------------------------------------------------------
 Structure from the checkpoint file:  "0001_q000_m01_k00_force_uwb97xd_def2qzvpd.chk"
 Charge =  0 Multiplicity = 1

                          Input orientation:
 ---------------------------------------------------------------------
 Center     Atomic      Atomic             Coordinates (Angstroms)
 Number     Number       Type             X           Y           Z
 ---------------------------------------------------------------------
      1          6           0        1.072617   -0.070199   -0.153013
      2          7           0        2.377944   -0.089746   -0.254385
      3          7           0        3.083355   -0.368470   -1.308729
      4          1           0        4.064049   -0.292670   -1.047637
      5          1           0        0.639963    0.185154    0.808526
      6          1           0        0.483044   -0.309980   -1.033725
      7          1           0        2.867498    0.145880    0.613132
 ---------------------------------------------------------------------

 SCF Done:  E(UwB97XD) =  -149.945374098     A.U. after    1 cycles

 Alpha  occ. eigenvalues --  -14.56179 -14.41940 -10.31156  -1.14220  -0.90652
 Alpha  occ. eigenvalues --   -0.73947  -0.65680  -0.57134  -0.52087  -0.50405
 Alpha  occ. eigenvalues --   -0.36741  -0.27600
 Alpha virt. eigenvalues --    0.04386   0.04963   0.07562   0.10685   0.14382
 Alpha virt. eigenvalues --    0.14733   0.15798   0.15986   0.20180   0.20884
 Alpha virt. eigenvalues --    0.21012   0.22537   0.22617   0.23913   0.25820

  Beta  occ. eigenvalues --  -14.56179 -14.41940 -10.31156  -1.14220  -0.90652
  Beta  occ. eigenvalues --   -0.73947  -0.65680  -0.57134  -0.52087  -0.50405
  Beta  occ. eigenvalues --   -0.36741  -0.27600
  Beta virt. eigenvalues --    0.04386   0.04963   0.07562   0.10685   0.14382
  Beta virt. eigenvalues --    0.14733   0.15798   0.15986   0.20180   0.20884
  Beta virt. eigenvalues --    0.21012   0.22537   0.22617   0.23913   0.25820

 Mulliken charges and spin densities:
               1          2
     1  C   -0.138439  -0.000000
     2  N   -0.047284   0.000000
     3  N   -0.465863  -0.000000
     4  H    0.121736  -0.000000
     5  H    0.168751   0.000000
     6  H    0.180195  -0.000000
     7  H    0.180904  -0.000000
 Sum of Mulliken charges =  -0.00000  -0.00000

 Dipole moment (field-independent basis, Debye):
    X=              0.2025    Y=              0.8117    Z=              3.0213  Tot=              3.1350
 Quadrupole moment (field-independent basis, Debye-Ang):
   XX=            -14.4586   YY=            -21.4135   ZZ=            -22.6953
   XY=              2.3676   XZ=              8.7027   YZ=             -0.4353

 ESP charges:
               1
     1  C   -0.582681
     2  N    0.268218
     3  N   -0.685889
     4  H    0.296487
     5  H    0.188795
     6  H    0.277616
     7  H    0.237454
 Sum of ESP charges =   0.00000

 Summary of Natural Population Analysis:

                                       Natural Population
                Natural  -----------------------------------------------
    Atom  No    Charge         Core      Valence    Rydberg      Total
 -----------------------------------------------------------------------
      C    1   -0.14605      0.99974     2.13380    0.01251     3.14605
      N    2   -0.10860      0.99976     2.59086    0.01797     3.60860
      N    3   -0.30037      0.99983     2.78244    0.01810     3.80037
      H    4    0.15862      0.00000     0.33895    0.00242     0.34138
      H    5    0.09851      0.00000     0.39975    0.00174     0.40149
      H    6    0.10513      0.00000     0.39311    0.00176     0.39487
      H    7    0.19276      0.00000     0.30500    0.00224     0.30724
 =======================================================================
   * Total *   -0.00000      2.99934     8.94391    0.05675    12.00000

 Normal termination of Gaussian 16 at Tue Jan  3 09:37:18 2023.
