 Gaussian 16, Revision C.01,

 ----------------------------------------------------------------------
 #p uwb97xd/gen stable=opt scf=(maxcycle=900,verytightlineq,xqc) integr
 al=grid=ultrafine symmetry=None density=current iop(99/18=-1) output=w
 fn
 ----------------------------------------------------------------------

 0001_q000_m01_k00_opt_uwb97xd_def2svpd/0001_q000_m01_k00_force_uwb97xd
 _def2svpd stable-force
 ----------------------------------------------------------------------
 Symbolic Z-matrix:
 Charge =  0 Multiplicity = 1

 SCF Done:  E(UwB97XD) =  -149.774666272     A.U. after   15 cycles
 Normal termination of Gaussian 16 at Tue Jan  3 09:04:56 2023.
 Gaussian 16:  ES64L-G16RevC.01  3-Jul-2019

 ----------------------------------------------------------------------
 #p uwb97xd/chkbasis force guess=read geom=check scf=(maxcycle=900,very
 tightlineq,xqc) integral=grid=ultrafine symmetry=None density=current
 pop=(cm5,hlygat,mbs,npa) output=wfx
 ----------------------------------------------------------------------

 0001_q000_m01_k00_opt_uwb97xd_def2svpd/0001_q000_m01_k00_force_uwb97xd
 _def2svpd stable-force
 ----------------------------------------------------------------------
 Structure from the checkpoint file:  "0001_q000_m01_k00_force_uwb97xd_def2svpd.chk"
 Charge =  0 Multiplicity = 1

                          Input orientation:
 ---------------------------------------------------------------------
 Center     Atomic      Atomic             Coordinates (Angstroms)
 Number     Number       Type             X           Y           Z
 ---------------------------------------------------------------------
      1          6           0        1.072617   -0.070199   -0.153013
      2          7           0        2.377944   -0.089746   -0.254385
      3          7           0        3.083355   -0.368470   -1.308729
      4          1           0        4.064049   -0.292670   -1.047637
      5          1           0        0.639963    0.185154    0.808526
      6          1           0        0.483044   -0.309980   -1.033725
      7          1           0        2.867498    0.145880    0.613132
 ---------------------------------------------------------------------

 SCF Done:  E(UwB97XD) =  -149.774666272     A.U. after    1 cycles

 Alpha  occ. eigenvalues --  -14.57404 -14.42897 -10.32480  -1.13483  -0.90190
 Alpha  occ. eigenvalues --   -0.73750  -0.65548  -0.57293  -0.52312  -0.50432
 Alpha  occ. eigenvalues --   -0.36541  -0.27640
 Alpha virt. eigenvalues --    0.04727   0.07846   0.11445   0.15587   0.19288
 Alpha virt. eigenvalues --    0.20645   0.21262   0.22030   0.27055   0.28299
 Alpha virt. eigenvalues --    0.29671   0.29795   0.32966   0.34859   0.35274

  Beta  occ. eigenvalues --  -14.57404 -14.42897 -10.32480  -1.13483  -0.90190
  Beta  occ. eigenvalues --   -0.73750  -0.65548  -0.57293  -0.52312  -0.50432
  Beta  occ. eigenvalues --   -0.36541  -0.27640
  Beta virt. eigenvalues --    0.04727   0.07846   0.11445   0.15587   0.19288
  Beta virt. eigenvalues --    0.20645   0.21262   0.22030   0.27055   0.28299
  Beta virt. eigenvalues --    0.29671   0.29795   0.32966   0.34859   0.35274

 Mulliken charges and spin densities:
               1          2
     1  C    0.670243   0.000000
     2  N    0.036565   0.000000
     3  N   -0.113183   0.000000
     4  H    0.059160   0.000000
     5  H   -0.228416   0.000000
     6  H   -0.174338   0.000000
     7  H   -0.250032   0.000000
 Sum of Mulliken charges =  -0.00000   0.00000

 Dipole moment (field-independent basis, Debye):
    X=              0.1862    Y=              0.8194    Z=              3.0504  Tot=              3.1640
 Quadrupole moment (field-independent basis, Debye-Ang):
   XX=            -14.5966   YY=            -21.1974   ZZ=            -22.7621
   XY=              2.3837   XZ=              8.7687   YZ=             -0.5178

 ESP charges:
               1
     1  C   -0.539702
     2  N    0.269668
     3  N   -0.699561
     4  H    0.301568
     5  H    0.174613
     6  H    0.260801
     7  H    0.232613
 Sum of ESP charges =   0.00000

 Summary of Natural Population Analysis:

                                       Natural Population
                Natural  -----------------------------------------------
    Atom  No    Charge         Core      Valence    Rydberg      Total
 -----------------------------------------------------------------------
      C    1   -0.13339      0.99973     2.12217    0.01150     3.13339
      N    2   -0.12670      0.99971     2.61582    0.01117     3.62670
      N    3   -0.31323      0.99981     2.79388    0.01954     3.81323
      H    4    0.16722      0.00000     0.32776    0.00502     0.33278
      H    5    0.10169      0.00000     0.39603    0.00228     0.39831
      H    6    0.10592      0.00000     0.39102    0.00306     0.39408
      H    7    0.19849      0.00000     0.29891    0.00260     0.30151
 =======================================================================
   * Total *   -0.00000      2.99925     8.94559    0.05516    12.00000

 Optimization completed.
    -- Stationary point found.
 Normal termination of Gaussian 16 at Tue Jan  3 09:05:04 2023.
