 Gaussian 16, Revision C.01,

 ----------------------------------------------------------------------
 #p uhf/gen stable=opt scf=(maxcycle=900,verytightlineq,xqc) integral=g
 rid=ultrafine symmetry=None density=current iop(99/18=-1) output=wfn
 ----------------------------------------------------------------------

 0001_q000_m01_k00_opt_uwb97xd_def2svpd/0001_q000_m01_k00_force_uhf_def
 2qzvpd stable-force
 ----------------------------------------------------------------------
 Symbolic Z-matrix:
 Charge =  0 Multiplicity = 1

 SCF Done:  E(UHF) =  -149.049175515     A.U. after   13 cycles
 SCF Done:  E(UHF) =  -149.064580897     a.u. after   11 cycles
 Normal termination of Gaussian 16 at Tue Jan  3 09:57:17 2023.
 Gaussian 16:  ES64L-G16RevC.01  3-Jul-2019

 ----------------------------------------------------------------------
 #p uhf/chkbasis force guess=read geom=check scf=(maxcycle=900,verytigh
 tlineq,xqc) integral=grid=ultrafine symmetry=None density=current pop=
 (cm5,hlygat,mbs,npa) output=wfx
 ----------------------------------------------------------------------

 0001_q000_m01_k00_opt_uwb97xd_def2svpd/0001_q000_m01_k00_force_uhf_def
 2qzvpd stable-force
 ----------------------------------------------------------------------
 Structure from the checkpoint file:  "0001_q000_m01_k00_force_uhf_def2qzvpd.chk"
 Charge =  0 Multiplicity = 1

                          Input orientation:
 ---------------------------------------------------------------------
 Center     Atomic      Atomic             Coordinates (Angstroms)
 Number     Number       Type             X           Y           Z
 ---------------------------------------------------------------------
      1          6           0        1.072617   -0.070199   -0.153013
      2          7           0        2.377944   -0.089746   -0.254385
      3          7           0        3.083355   -0.368470   -1.308729
      4          1           0        4.064049   -0.292670   -1.047637
      5          1           0        0.639963    0.185154    0.808526
      6          1           0        0.483044   -0.309980   -1.033725
      7          1           0        2.867498    0.145880    0.613132
 ---------------------------------------------------------------------

 SCF Done:  E(UHF) =  -149.064580898     A.U. after    1 cycles

 Alpha  occ. eigenvalues --  -15.65746 -15.56988 -11.23531  -1.36357  -1.08295
 Alpha  occ. eigenvalues --   -0.84049  -0.75352  -0.64958  -0.61347  -0.56918
 Alpha  occ. eigenvalues --   -0.46253  -0.35633
 Alpha virt. eigenvalues --    0.05782   0.08303   0.10976   0.12478   0.15187
 Alpha virt. eigenvalues --    0.15896   0.16487   0.16921   0.21322   0.21350
 Alpha virt. eigenvalues --    0.21960   0.23818   0.25394   0.26485   0.28498

  Beta  occ. eigenvalues --  -15.65108 -15.54710 -11.25403  -1.34109  -1.06039
  Beta  occ. eigenvalues --   -0.85406  -0.75286  -0.64878  -0.57509  -0.56327
  Beta  occ. eigenvalues --   -0.43425  -0.29989
  Beta virt. eigenvalues --    0.05677   0.08298   0.11071   0.13460   0.15067
  Beta virt. eigenvalues --    0.15803   0.16492   0.16767   0.21300   0.21602
  Beta virt. eigenvalues --    0.21853   0.23518   0.24413   0.26072   0.27229

 Mulliken charges and spin densities:
               1          2
     1  C   -0.156635  -0.939910
     2  N   -0.044416   0.129525
     3  N   -0.438855   0.732283
     4  H    0.161806  -0.057112
     5  H    0.112284   0.065181
     6  H    0.149584   0.071341
     7  H    0.216233  -0.001307
 Sum of Mulliken charges =   0.00000   0.00000

 Dipole moment (field-independent basis, Debye):
    X=              0.4411    Y=              0.7388    Z=              2.7447  Tot=              2.8764
 Quadrupole moment (field-independent basis, Debye-Ang):
   XX=            -13.3012   YY=            -21.3464   ZZ=            -22.3316
   XY=              2.0829   XZ=              7.6483   YZ=             -0.3453

 ESP charges:
               1
     1  C   -0.576495
     2  N    0.240957
     3  N   -0.644939
     4  H    0.307133
     5  H    0.191272
     6  H    0.265885
     7  H    0.216188
 Sum of ESP charges =  -0.00000

 Summary of Natural Population Analysis:

                                       Natural Population
                Natural  -----------------------------------------------
    Atom  No    Charge         Core      Valence    Rydberg      Total
 -----------------------------------------------------------------------
      C    1   -0.50314      0.99974     2.48203    0.02137     3.50314
      N    2   -0.11337      0.99977     2.59015    0.02345     3.61337
      N    3    0.07996      0.99983     2.40280    0.01742     3.42004
      H    4    0.13674      0.00000     0.36104    0.00221     0.36326
      H    5    0.10625      0.00000     0.39165    0.00210     0.39375
      H    6    0.11187      0.00000     0.38601    0.00211     0.38813
      H    7    0.18169      0.00000     0.31619    0.00213     0.31831
 =======================================================================
   * Total *    0.00000      2.99935     8.92987    0.07078    12.00000

 Normal termination of Gaussian 16 at Tue Jan  3 10:00:09 2023.
