 Gaussian 16, Revision C.01,

 ----------------------------------------------------------------------
 #p uwb97xd/gen stable=opt scf=(maxcycle=900,verytightlineq,xqc) integr
 al=grid=ultrafine symmetry=None density=current iop(99/18=-1) output=w
 fn
 ----------------------------------------------------------------------

 0001_q000_m01_k00_opt_uwb97xd_def2svpd/0001_q000_m01_k00_force_uwb97xd
 _def2svp stable-force
 ----------------------------------------------------------------------
 Symbolic Z-matrix:
 Charge =  0 Multiplicity = 1

 SCF Done:  E(UwB97XD) =  -149.757974670     A.U. after   15 cycles
 Normal termination of Gaussian 16 at Tue Jan  3 09:04:20 2023.
 Gaussian 16:  ES64L-G16RevC.01  3-Jul-2019

 ----------------------------------------------------------------------
 #p uwb97xd/chkbasis force guess=read geom=check scf=(maxcycle=900,very
 tightlineq,xqc) integral=grid=ultrafine symmetry=None density=current
 pop=(cm5,hlygat,mbs,npa) output=wfx
 ----------------------------------------------------------------------

 0001_q000_m01_k00_opt_uwb97xd_def2svpd/0001_q000_m01_k00_force_uwb97xd
 _def2svp stable-force
 ----------------------------------------------------------------------
 Structure from the checkpoint file:  "0001_q000_m01_k00_force_uwb97xd_def2svp.chk"
 Charge =  0 Multiplicity = 1

                          Input orientation:
 ---------------------------------------------------------------------
 Center     Atomic      Atomic             Coordinates (Angstroms)
 Number     Number       Type             X           Y           Z
 ---------------------------------------------------------------------
      1          6           0        1.072617   -0.070199   -0.153013
      2          7           0        2.377944   -0.089746   -0.254385
      3          7           0        3.083355   -0.368470   -1.308729
      4          1           0        4.064049   -0.292670   -1.047637
      5          1           0        0.639963    0.185154    0.808526
      6          1           0        0.483044   -0.309980   -1.033725
      7          1           0        2.867498    0.145880    0.613132
 ---------------------------------------------------------------------

 SCF Done:  E(UwB97XD) =  -149.757974670     A.U. after    1 cycles

 Alpha  occ. eigenvalues --  -14.56547 -14.41683 -10.31445  -1.12697  -0.89391
 Alpha  occ. eigenvalues --   -0.73023  -0.64714  -0.56430  -0.51554  -0.49570
 Alpha  occ. eigenvalues --   -0.35174  -0.26383
 Alpha virt. eigenvalues --    0.06297   0.10790   0.18678   0.20350   0.22597
 Alpha virt. eigenvalues --    0.32753   0.42198   0.51789   0.56036   0.58600
 Alpha virt. eigenvalues --    0.60366   0.66954   0.73081   0.76076   0.76866

  Beta  occ. eigenvalues --  -14.56547 -14.41683 -10.31445  -1.12697  -0.89391
  Beta  occ. eigenvalues --   -0.73023  -0.64714  -0.56430  -0.51554  -0.49570
  Beta  occ. eigenvalues --   -0.35174  -0.26383
  Beta virt. eigenvalues --    0.06297   0.10790   0.18678   0.20350   0.22597
  Beta virt. eigenvalues --    0.32753   0.42198   0.51789   0.56036   0.58600
  Beta virt. eigenvalues --    0.60366   0.66954   0.73081   0.76076   0.76866

 Mulliken charges and spin densities:
               1          2
     1  C   -0.122097   0.000000
     2  N    0.022570   0.000000
     3  N   -0.273704   0.000000
     4  H    0.093991   0.000000
     5  H    0.057606   0.000000
     6  H    0.073862   0.000000
     7  H    0.147772   0.000000
 Sum of Mulliken charges =  -0.00000   0.00000

 Dipole moment (field-independent basis, Debye):
    X=              0.5902    Y=              0.8355    Z=              3.1018  Tot=              3.2661
 Quadrupole moment (field-independent basis, Debye-Ang):
   XX=            -12.5298   YY=            -20.6078   ZZ=            -22.3490
   XY=              2.3381   XZ=              8.6202   YZ=             -0.5720

 ESP charges:
               1
     1  C   -0.651872
     2  N    0.386082
     3  N   -0.729771
     4  H    0.317923
     5  H    0.202357
     6  H    0.265006
     7  H    0.210276
 Sum of ESP charges =   0.00000

 Summary of Natural Population Analysis:

                                       Natural Population
                Natural  -----------------------------------------------
    Atom  No    Charge         Core      Valence    Rydberg      Total
 -----------------------------------------------------------------------
      C    1   -0.13634      0.99967     2.12329    0.01339     3.13634
      N    2   -0.11657      0.99963     2.60885    0.00809     3.61657
      N    3   -0.29219      0.99979     2.77821    0.01419     3.79219
      H    4    0.15743      0.00000     0.34014    0.00243     0.34257
      H    5    0.09527      0.00000     0.40378    0.00095     0.40473
      H    6    0.10202      0.00000     0.39648    0.00150     0.39798
      H    7    0.19039      0.00000     0.30639    0.00322     0.30961
 =======================================================================
   * Total *    0.00000      2.99909     8.95714    0.04377    12.00000

 Normal termination of Gaussian 16 at Tue Jan  3 09:04:26 2023.
