 Gaussian 16, Revision C.01,

 ----------------------------------------------------------------------
 #p uwb97xd/gen stable=opt scf=(maxcycle=900,verytightlineq,xqc) integr
 al=grid=ultrafine symmetry=None density=current iop(99/18=-1) output=w
 fn
 ----------------------------------------------------------------------

 0001_q000_m01_k00_opt_uwb97xd_def2svpd/0001_q000_m01_k00_force_uwb97xd
 _def2tzvp stable-force
 ----------------------------------------------------------------------
 Symbolic Z-matrix:
 Charge =  0 Multiplicity = 1

 SCF Done:  E(UwB97XD) =  -149.932174001     A.U. after   14 cycles
 Normal termination of Gaussian 16 at Tue Jan  3 09:05:36 2023.
 Gaussian 16:  ES64L-G16RevC.01  3-Jul-2019

 ----------------------------------------------------------------------
 #p uwb97xd/chkbasis force guess=read geom=check scf=(maxcycle=900,very
 tightlineq,xqc) integral=grid=ultrafine symmetry=None density=current
 pop=(cm5,hlygat,mbs,npa) output=wfx
 ----------------------------------------------------------------------

 0001_q000_m01_k00_opt_uwb97xd_def2svpd/0001_q000_m01_k00_force_uwb97xd
 _def2tzvp stable-force
 ----------------------------------------------------------------------
 Structure from the checkpoint file:  "0001_q000_m01_k00_force_uwb97xd_def2tzvp.chk"
 Charge =  0 Multiplicity = 1

                          Input orientation:
 ---------------------------------------------------------------------
 Center     Atomic      Atomic             Coordinates (Angstroms)
 Number     Number       Type             X           Y           Z
 ---------------------------------------------------------------------
      1          6           0        1.072617   -0.070199   -0.153013
      2          7           0        2.377944   -0.089746   -0.254385
      3          7           0        3.083355   -0.368470   -1.308729
      4          1           0        4.064049   -0.292670   -1.047637
      5          1           0        0.639963    0.185154    0.808526
      6          1           0        0.483044   -0.309980   -1.033725
      7          1           0        2.867498    0.145880    0.613132
 ---------------------------------------------------------------------

 SCF Done:  E(UwB97XD) =  -149.932174001     A.U. after    1 cycles

 Alpha  occ. eigenvalues --  -14.55746 -14.41363 -10.30674  -1.14046  -0.90477
 Alpha  occ. eigenvalues --   -0.73805  -0.65507  -0.56946  -0.51885  -0.50203
 Alpha  occ. eigenvalues --   -0.36438  -0.27292
 Alpha virt. eigenvalues --    0.04955   0.08608   0.15823   0.16986   0.19580
 Alpha virt. eigenvalues --    0.23762   0.27820   0.31231   0.34929   0.36004
 Alpha virt. eigenvalues --    0.42068   0.44871   0.46589   0.48969   0.50306

  Beta  occ. eigenvalues --  -14.55746 -14.41363 -10.30674  -1.14046  -0.90477
  Beta  occ. eigenvalues --   -0.73805  -0.65507  -0.56946  -0.51885  -0.50203
  Beta  occ. eigenvalues --   -0.36438  -0.27292
  Beta virt. eigenvalues --    0.04955   0.08608   0.15823   0.16986   0.19580
  Beta virt. eigenvalues --    0.23762   0.27820   0.31231   0.34929   0.36004
  Beta virt. eigenvalues --    0.42068   0.44871   0.46589   0.48969   0.50306

 Mulliken charges and spin densities:
               1          2
     1  C   -0.267904   0.000000
     2  N    0.013129   0.000000
     3  N   -0.467444   0.000000
     4  H    0.190883   0.000000
     5  H    0.142278   0.000000
     6  H    0.150859   0.000000
     7  H    0.238199   0.000000
 Sum of Mulliken charges =  -0.00000   0.00000

 Dipole moment (field-independent basis, Debye):
    X=              0.3700    Y=              0.8402    Z=              3.1240  Tot=              3.2561
 Quadrupole moment (field-independent basis, Debye-Ang):
   XX=            -13.4926   YY=            -21.3268   ZZ=            -22.6751
   XY=              2.4114   XZ=              8.8689   YZ=             -0.4576

 ESP charges:
               1
     1  C   -0.654629
     2  N    0.317783
     3  N   -0.720373
     4  H    0.316253
     5  H    0.211119
     6  H    0.293196
     7  H    0.236650
 Sum of ESP charges =   0.00000

 Summary of Natural Population Analysis:

                                       Natural Population
                Natural  -----------------------------------------------
    Atom  No    Charge         Core      Valence    Rydberg      Total
 -----------------------------------------------------------------------
      C    1   -0.15236      0.99973     2.13913    0.01349     3.15236
      N    2   -0.09302      0.99975     2.58097    0.01230     3.59302
      N    3   -0.29288      0.99982     2.77294    0.02012     3.79288
      H    4    0.15310      0.00000     0.34605    0.00085     0.34690
      H    5    0.09588      0.00000     0.40344    0.00068     0.40412
      H    6    0.10273      0.00000     0.39629    0.00098     0.39727
      H    7    0.18655      0.00000     0.31263    0.00083     0.31345
 =======================================================================
   * Total *   -0.00000      2.99930     8.95145    0.04924    12.00000

 Normal termination of Gaussian 16 at Tue Jan  3 09:05:51 2023.
