 Gaussian 16, Revision C.01,

 ----------------------------------------------------------------------
 #p uwb97xd/gen stable=opt scf=(maxcycle=900,verytightlineq,xqc) integr
 al=grid=ultrafine symmetry=None density=current iop(99/18=-1) output=w
 fn
 ----------------------------------------------------------------------

 0001_q000_m01_k00_opt_uwb97xd_def2svpd/0001_q000_m01_k00_force_uwb97xd
 _def2tzvpd stable-force
 ----------------------------------------------------------------------
 Symbolic Z-matrix:
 Charge =  0 Multiplicity = 1

 SCF Done:  E(UwB97XD) =  -149.934574782     A.U. after   13 cycles
 Normal termination of Gaussian 16 at Tue Jan  3 09:06:35 2023.
 Gaussian 16:  ES64L-G16RevC.01  3-Jul-2019

 ----------------------------------------------------------------------
 #p uwb97xd/chkbasis force guess=read geom=check scf=(maxcycle=900,very
 tightlineq,xqc) integral=grid=ultrafine symmetry=None density=current
 pop=(cm5,hlygat,mbs,npa) output=wfx
 ----------------------------------------------------------------------

 0001_q000_m01_k00_opt_uwb97xd_def2svpd/0001_q000_m01_k00_force_uwb97xd
 _def2tzvpd stable-force
 ----------------------------------------------------------------------
 Structure from the checkpoint file:  "0001_q000_m01_k00_force_uwb97xd_def2tzvpd.chk"
 Charge =  0 Multiplicity = 1

                          Input orientation:
 ---------------------------------------------------------------------
 Center     Atomic      Atomic             Coordinates (Angstroms)
 Number     Number       Type             X           Y           Z
 ---------------------------------------------------------------------
      1          6           0        1.072617   -0.070199   -0.153013
      2          7           0        2.377944   -0.089746   -0.254385
      3          7           0        3.083355   -0.368470   -1.308729
      4          1           0        4.064049   -0.292670   -1.047637
      5          1           0        0.639963    0.185154    0.808526
      6          1           0        0.483044   -0.309980   -1.033725
      7          1           0        2.867498    0.145880    0.613132
 ---------------------------------------------------------------------

 SCF Done:  E(UwB97XD) =  -149.934574782     A.U. after    1 cycles

 Alpha  occ. eigenvalues --  -14.55945 -14.41789 -10.30944  -1.14227  -0.90656
 Alpha  occ. eigenvalues --   -0.73944  -0.65675  -0.57131  -0.52069  -0.50396
 Alpha  occ. eigenvalues --   -0.36707  -0.27566
 Alpha virt. eigenvalues --    0.04559   0.05736   0.08908   0.11555   0.15191
 Alpha virt. eigenvalues --    0.16998   0.17399   0.17819   0.22614   0.23514
 Alpha virt. eigenvalues --    0.23696   0.25109   0.26239   0.27365   0.29318

  Beta  occ. eigenvalues --  -14.55945 -14.41789 -10.30944  -1.14227  -0.90656
  Beta  occ. eigenvalues --   -0.73944  -0.65675  -0.57131  -0.52069  -0.50396
  Beta  occ. eigenvalues --   -0.36707  -0.27566
  Beta virt. eigenvalues --    0.04559   0.05736   0.08908   0.11555   0.15191
  Beta virt. eigenvalues --    0.16998   0.17399   0.17819   0.22614   0.23514
  Beta virt. eigenvalues --    0.23696   0.25109   0.26239   0.27365   0.29318

 Mulliken charges and spin densities:
               1          2
     1  C   -0.569894   0.000000
     2  N    0.370316   0.000000
     3  N   -0.877421   0.000000
     4  H    0.185471   0.000000
     5  H    0.310786   0.000000
     6  H    0.350912   0.000000
     7  H    0.229830   0.000000
 Sum of Mulliken charges =  -0.00000   0.00000

 Dipole moment (field-independent basis, Debye):
    X=              0.2165    Y=              0.8122    Z=              3.0229  Tot=              3.1376
 Quadrupole moment (field-independent basis, Debye-Ang):
   XX=            -14.4019   YY=            -21.4163   ZZ=            -22.6637
   XY=              2.3700   XZ=              8.7120   YZ=             -0.4254

 ESP charges:
               1
     1  C   -0.585282
     2  N    0.261933
     3  N   -0.684437
     4  H    0.296942
     5  H    0.189883
     6  H    0.279352
     7  H    0.241609
 Sum of ESP charges =   0.00000

 Summary of Natural Population Analysis:

                                       Natural Population
                Natural  -----------------------------------------------
    Atom  No    Charge         Core      Valence    Rydberg      Total
 -----------------------------------------------------------------------
      C    1   -0.14751      0.99974     2.13509    0.01268     3.14751
      N    2   -0.09858      0.99976     2.58190    0.01692     3.59858
      N    3   -0.29320      0.99983     2.77314    0.02023     3.79320
      H    4    0.15411      0.00000     0.34348    0.00241     0.34589
      H    5    0.09576      0.00000     0.40210    0.00215     0.40424
      H    6    0.10204      0.00000     0.39581    0.00215     0.39796
      H    7    0.18739      0.00000     0.31046    0.00215     0.31261
 =======================================================================
   * Total *   -0.00000      2.99933     8.94198    0.05868    12.00000

 Normal termination of Gaussian 16 at Tue Jan  3 09:06:58 2023.
