 Gaussian 16, Revision C.01,

 ----------------------------------------------------------------------
 #p uhf/gen stable=opt scf=(maxcycle=900,verytightlineq,xqc) integral=g
 rid=ultrafine symmetry=None density=current iop(99/18=-1) output=wfn
 ----------------------------------------------------------------------

 0001_q000_m01_k00_opt_uwb97xd_def2svpd/0001_q000_m01_k00_force_uhf_def
 2svpd stable-force
 ----------------------------------------------------------------------
 Symbolic Z-matrix:
 Charge =  0 Multiplicity = 1

 SCF Done:  E(UHF) =  -148.875801740     A.U. after   13 cycles
 SCF Done:  E(UHF) =  -148.891902801     a.u. after   11 cycles
 Normal termination of Gaussian 16 at Tue Jan  3 09:03:47 2023.
 Gaussian 16:  ES64L-G16RevC.01  3-Jul-2019

 ----------------------------------------------------------------------
 #p uhf/chkbasis force guess=read geom=check scf=(maxcycle=900,verytigh
 tlineq,xqc) integral=grid=ultrafine symmetry=None density=current pop=
 (cm5,hlygat,mbs,npa) output=wfx
 ----------------------------------------------------------------------

 0001_q000_m01_k00_opt_uwb97xd_def2svpd/0001_q000_m01_k00_force_uhf_def
 2svpd stable-force
 ----------------------------------------------------------------------
 Structure from the checkpoint file:  "0001_q000_m01_k00_force_uhf_def2svpd.chk"
 Charge =  0 Multiplicity = 1

                          Input orientation:
 ---------------------------------------------------------------------
 Center     Atomic      Atomic             Coordinates (Angstroms)
 Number     Number       Type             X           Y           Z
 ---------------------------------------------------------------------
      1          6           0        1.072617   -0.070199   -0.153013
      2          7           0        2.377944   -0.089746   -0.254385
      3          7           0        3.083355   -0.368470   -1.308729
      4          1           0        4.064049   -0.292670   -1.047637
      5          1           0        0.639963    0.185154    0.808526
      6          1           0        0.483044   -0.309980   -1.033725
      7          1           0        2.867498    0.145880    0.613132
 ---------------------------------------------------------------------

 SCF Done:  E(UHF) =  -148.891902801     A.U. after    1 cycles

 Alpha  occ. eigenvalues --  -15.66112 -15.57346 -11.24086  -1.35242  -1.07449
 Alpha  occ. eigenvalues --   -0.83623  -0.75413  -0.65214  -0.61587  -0.56954
 Alpha  occ. eigenvalues --   -0.46290  -0.35795
 Alpha virt. eigenvalues --    0.10266   0.13050   0.14871   0.17526   0.22310
 Alpha virt. eigenvalues --    0.23775   0.23898   0.24897   0.29407   0.30535
 Alpha virt. eigenvalues --    0.32087   0.34354   0.37075   0.38782   0.40442

  Beta  occ. eigenvalues --  -15.65457 -15.54924 -11.26121  -1.33011  -1.05297
  Beta  occ. eigenvalues --   -0.84805  -0.75371  -0.65181  -0.57610  -0.56574
  Beta  occ. eigenvalues --   -0.43255  -0.30078
  Beta virt. eigenvalues --    0.10116   0.12984   0.15544   0.17750   0.22087
  Beta virt. eigenvalues --    0.23555   0.23708   0.24392   0.29336   0.30532
  Beta virt. eigenvalues --    0.32286   0.32328   0.36575   0.38708   0.40481

 Mulliken charges and spin densities:
               1          2
     1  C    0.576408  -1.036752
     2  N   -0.129185   0.158512
     3  N   -0.144256   0.766149
     4  H    0.114534  -0.030593
     5  H   -0.108939   0.104574
     6  H   -0.076601   0.084691
     7  H   -0.231960  -0.046580
 Sum of Mulliken charges =   0.00000   0.00000

 Dipole moment (field-independent basis, Debye):
    X=              0.4605    Y=              0.7459    Z=              2.7704  Tot=              2.9058
 Quadrupole moment (field-independent basis, Debye-Ang):
   XX=            -13.2771   YY=            -21.2009   ZZ=            -22.4034
   XY=              2.0924   XZ=              7.6896   YZ=             -0.4090

 ESP charges:
               1
     1  C   -0.550316
     2  N    0.242457
     3  N   -0.656220
     4  H    0.313223
     5  H    0.182226
     6  H    0.254313
     7  H    0.214317
 Sum of ESP charges =   0.00000

 Summary of Natural Population Analysis:

                                       Natural Population
                Natural  -----------------------------------------------
    Atom  No    Charge         Core      Valence    Rydberg      Total
 -----------------------------------------------------------------------
      C    1   -0.49565      0.99974     2.47589    0.02001     3.49565
      N    2   -0.12944      0.99974     2.61342    0.01628     3.62944
      N    3    0.06988      0.99983     2.41056    0.01973     3.43012
      H    4    0.14577      0.00000     0.34952    0.00470     0.35423
      H    5    0.10946      0.00000     0.38816    0.00238     0.39054
      H    6    0.11292      0.00000     0.38396    0.00312     0.38708
      H    7    0.18706      0.00000     0.30884    0.00410     0.31294
 =======================================================================
   * Total *    0.00000      2.99931     8.93035    0.07033    12.00000

 Normal termination of Gaussian 16 at Tue Jan  3 09:03:54 2023.
