 Gaussian 16, Revision C.01,

 ----------------------------------------------------------------------
 #p ub3lyp/gen stable=opt scf=(maxcycle=900,verytightlineq,xqc) integra
 l=grid=ultrafine symmetry=None density=current iop(99/18=-1) output=wf
 n
 ----------------------------------------------------------------------

 0001_q000_m01_k00_opt_uwb97xd_def2svpd/0001_q000_m01_k00_force_ub3lyp_
 def2qzvpd stable-force
 ----------------------------------------------------------------------
 Symbolic Z-matrix:
 Charge =  0 Multiplicity = 1

 SCF Done:  E(UB3LYP) =  -150.006611757     A.U. after   12 cycles
 Normal termination of Gaussian 16 at Tue Jan  3 09:23:36 2023.
 Gaussian 16:  ES64L-G16RevC.01  3-Jul-2019

 ----------------------------------------------------------------------
 #p ub3lyp/chkbasis force guess=read geom=check scf=(maxcycle=900,veryt
 ightlineq,xqc) integral=grid=ultrafine symmetry=None density=current p
 op=(cm5,hlygat,mbs,npa) output=wfx
 ----------------------------------------------------------------------

 0001_q000_m01_k00_opt_uwb97xd_def2svpd/0001_q000_m01_k00_force_ub3lyp_
 def2qzvpd stable-force
 ----------------------------------------------------------------------
 Structure from the checkpoint file:  "0001_q000_m01_k00_force_ub3lyp_def2qzvpd.chk"
 Charge =  0 Multiplicity = 1

                          Input orientation:
 ---------------------------------------------------------------------
 Center     Atomic      Atomic             Coordinates (Angstroms)
 Number     Number       Type             X           Y           Z
 ---------------------------------------------------------------------
      1          6           0        1.072617   -0.070199   -0.153013
      2          7           0        2.377944   -0.089746   -0.254385
      3          7           0        3.083355   -0.368470   -1.308729
      4          1           0        4.064049   -0.292670   -1.047637
      5          1           0        0.639963    0.185154    0.808526
      6          1           0        0.483044   -0.309980   -1.033725
      7          1           0        2.867498    0.145880    0.613132
 ---------------------------------------------------------------------

 SCF Done:  E(UB3LYP) =  -150.006611757     A.U. after    1 cycles

 Alpha  occ. eigenvalues --  -14.44200 -14.30653 -10.20174  -1.04363  -0.81245
 Alpha  occ. eigenvalues --   -0.64898  -0.57026  -0.48886  -0.43493  -0.42348
 Alpha  occ. eigenvalues --   -0.28827  -0.20569
 Alpha virt. eigenvalues --   -0.03124  -0.01794   0.01906   0.04126   0.07767
 Alpha virt. eigenvalues --    0.08017   0.09138   0.09583   0.13670   0.14034
 Alpha virt. eigenvalues --    0.14473   0.15425   0.16457   0.17826   0.19112

  Beta  occ. eigenvalues --  -14.44200 -14.30653 -10.20174  -1.04363  -0.81245
  Beta  occ. eigenvalues --   -0.64898  -0.57026  -0.48886  -0.43493  -0.42348
  Beta  occ. eigenvalues --   -0.28827  -0.20569
  Beta virt. eigenvalues --   -0.03124  -0.01794   0.01906   0.04126   0.07767
  Beta virt. eigenvalues --    0.08017   0.09138   0.09583   0.13670   0.14034
  Beta virt. eigenvalues --    0.14473   0.15425   0.16457   0.17826   0.19112

 Mulliken charges and spin densities:
               1          2
     1  C   -0.200251   0.000000
     2  N    0.086656  -0.000000
     3  N   -0.456686   0.000000
     4  H    0.127715   0.000000
     5  H    0.111055   0.000000
     6  H    0.129930  -0.000000
     7  H    0.201582   0.000000
 Sum of Mulliken charges =   0.00000   0.00000

 Dipole moment (field-independent basis, Debye):
    X=              0.2349    Y=              0.7868    Z=              2.9280  Tot=              3.0409
 Quadrupole moment (field-independent basis, Debye-Ang):
   XX=            -14.7243   YY=            -21.5716   ZZ=            -22.8926
   XY=              2.3028   XZ=              8.4679   YZ=             -0.4444

 ESP charges:
               1
     1  C   -0.582003
     2  N    0.296896
     3  N   -0.677722
     4  H    0.289281
     5  H    0.182581
     6  H    0.271323
     7  H    0.219644
 Sum of ESP charges =  -0.00000

 Summary of Natural Population Analysis:

                                       Natural Population
                Natural  -----------------------------------------------
    Atom  No    Charge         Core      Valence    Rydberg      Total
 -----------------------------------------------------------------------
      C    1   -0.14139      0.99974     2.12724    0.01441     3.14139
      N    2   -0.11425      0.99977     2.59649    0.01800     3.61425
      N    3   -0.29194      0.99982     2.77390    0.01822     3.79194
      H    4    0.15790      0.00000     0.33949    0.00261     0.34210
      H    5    0.09743      0.00000     0.40100    0.00157     0.40257
      H    6    0.10313      0.00000     0.39512    0.00176     0.39687
      H    7    0.18913      0.00000     0.30822    0.00265     0.31087
 =======================================================================
   * Total *    0.00000      2.99932     8.94145    0.05922    12.00000

 Normal termination of Gaussian 16 at Tue Jan  3 09:26:24 2023.
