 Gaussian 16, Revision C.01,

 ----------------------------------------------------------------------
 #p uhf/gen stable=opt scf=(maxcycle=900,verytightlineq,xqc) integral=g
 rid=ultrafine symmetry=None density=current iop(99/18=-1) output=wfn
 ----------------------------------------------------------------------

 0001_q000_m01_k00_opt_uwb97xd_def2svpd/0001_q000_m01_k00_force_uhf_def
 2tzvpd stable-force
 ----------------------------------------------------------------------
 Symbolic Z-matrix:
 Charge =  0 Multiplicity = 1

 SCF Done:  E(UHF) =  -149.040241835     A.U. after   13 cycles
 SCF Done:  E(UHF) =  -149.055685778     a.u. after   11 cycles
 Normal termination of Gaussian 16 at Tue Jan  3 09:04:20 2023.
 Gaussian 16:  ES64L-G16RevC.01  3-Jul-2019

 ----------------------------------------------------------------------
 #p uhf/chkbasis force guess=read geom=check scf=(maxcycle=900,verytigh
 tlineq,xqc) integral=grid=ultrafine symmetry=None density=current pop=
 (cm5,hlygat,mbs,npa) output=wfx
 ----------------------------------------------------------------------

 0001_q000_m01_k00_opt_uwb97xd_def2svpd/0001_q000_m01_k00_force_uhf_def
 2tzvpd stable-force
 ----------------------------------------------------------------------
 Structure from the checkpoint file:  "0001_q000_m01_k00_force_uhf_def2tzvpd.chk"
 Charge =  0 Multiplicity = 1

                          Input orientation:
 ---------------------------------------------------------------------
 Center     Atomic      Atomic             Coordinates (Angstroms)
 Number     Number       Type             X           Y           Z
 ---------------------------------------------------------------------
      1          6           0        1.072617   -0.070199   -0.153013
      2          7           0        2.377944   -0.089746   -0.254385
      3          7           0        3.083355   -0.368470   -1.308729
      4          1           0        4.064049   -0.292670   -1.047637
      5          1           0        0.639963    0.185154    0.808526
      6          1           0        0.483044   -0.309980   -1.033725
      7          1           0        2.867498    0.145880    0.613132
 ---------------------------------------------------------------------

 SCF Done:  E(UHF) =  -149.055685778     A.U. after    1 cycles

 Alpha  occ. eigenvalues --  -15.65095 -15.54749 -11.25394  -1.34121  -1.06043
 Alpha  occ. eigenvalues --   -0.85390  -0.75281  -0.64881  -0.57501  -0.56328
 Alpha  occ. eigenvalues --   -0.43393  -0.29969
 Alpha virt. eigenvalues --    0.07069   0.09539   0.12167   0.14517   0.16139
 Alpha virt. eigenvalues --    0.18097   0.18776   0.19120   0.23688   0.24428
 Alpha virt. eigenvalues --    0.25212   0.27968   0.28268   0.30965   0.31584

  Beta  occ. eigenvalues --  -15.65739 -15.57058 -11.23493  -1.36361  -1.08298
  Beta  occ. eigenvalues --   -0.84033  -0.75345  -0.64957  -0.61338  -0.56910
  Beta  occ. eigenvalues --   -0.46236  -0.35616
  Beta virt. eigenvalues --    0.07147   0.09647   0.12087   0.13715   0.16169
  Beta virt. eigenvalues --    0.18391   0.18809   0.19179   0.23705   0.24473
  Beta virt. eigenvalues --    0.24857   0.28153   0.29696   0.31070   0.32272

 Mulliken charges and spin densities:
               1          2
     1  C   -0.328046   0.981058
     2  N    0.323670  -0.123823
     3  N   -0.745220  -0.782175
     4  H    0.160537   0.049391
     5  H    0.170605  -0.083840
     6  H    0.216750  -0.073861
     7  H    0.201703   0.033250
 Sum of Mulliken charges =  -0.00000   0.00000

 Dipole moment (field-independent basis, Debye):
    X=              0.4463    Y=              0.7386    Z=              2.7436  Tot=              2.8761
 Quadrupole moment (field-independent basis, Debye-Ang):
   XX=            -13.2799   YY=            -21.3484   ZZ=            -22.3032
   XY=              2.0833   XZ=              7.6501   YZ=             -0.3365

 ESP charges:
               1
     1  C   -0.579958
     2  N    0.236281
     3  N   -0.642796
     4  H    0.306843
     5  H    0.192808
     6  H    0.267781
     7  H    0.219040
 Sum of ESP charges =   0.00000

 Summary of Natural Population Analysis:

                                       Natural Population
                Natural  -----------------------------------------------
    Atom  No    Charge         Core      Valence    Rydberg      Total
 -----------------------------------------------------------------------
      C    1    0.32195      0.99975     1.66836    0.00994     2.67805
      N    2   -0.24437      0.99975     2.72301    0.02161     3.74437
      N    3   -0.55627      0.99984     3.03559    0.02084     4.05627
      H    4    0.16257      0.00000     0.33568    0.00175     0.33743
      H    5    0.06201      0.00000     0.43670    0.00129     0.43799
      H    6    0.06722      0.00000     0.43114    0.00164     0.43278
      H    7    0.18689      0.00000     0.31095    0.00216     0.31311
 =======================================================================
   * Total *    0.00000      2.99934     8.94143    0.05923    12.00000

 Normal termination of Gaussian 16 at Tue Jan  3 09:04:33 2023.
