 Gaussian 16, Revision C.01,

 ----------------------------------------------------------------------
 #p uhf/gen stable=opt scf=(maxcycle=900,verytightlineq,xqc) integral=g
 rid=ultrafine symmetry=None density=current iop(99/18=-1) output=wfn
 ----------------------------------------------------------------------

 0001_q000_m01_k00_opt_uwb97xd_def2svpd/0001_q000_m01_k00_force_uhf_def
 2tzvp stable-force
 ----------------------------------------------------------------------
 Symbolic Z-matrix:
 Charge =  0 Multiplicity = 1

 SCF Done:  E(UHF) =  -149.037602762     A.U. after   13 cycles
 SCF Done:  E(UHF) =  -149.053680069     a.u. after   11 cycles
 Normal termination of Gaussian 16 at Tue Jan  3 09:03:56 2023.
 Gaussian 16:  ES64L-G16RevC.01  3-Jul-2019

 ----------------------------------------------------------------------
 #p uhf/chkbasis force guess=read geom=check scf=(maxcycle=900,verytigh
 tlineq,xqc) integral=grid=ultrafine symmetry=None density=current pop=
 (cm5,hlygat,mbs,npa) output=wfx
 ----------------------------------------------------------------------

 0001_q000_m01_k00_opt_uwb97xd_def2svpd/0001_q000_m01_k00_force_uhf_def
 2tzvp stable-force
 ----------------------------------------------------------------------
 Structure from the checkpoint file:  "0001_q000_m01_k00_force_uhf_def2tzvp.chk"
 Charge =  0 Multiplicity = 1

                          Input orientation:
 ---------------------------------------------------------------------
 Center     Atomic      Atomic             Coordinates (Angstroms)
 Number     Number       Type             X           Y           Z
 ---------------------------------------------------------------------
      1          6           0        1.072617   -0.070199   -0.153013
      2          7           0        2.377944   -0.089746   -0.254385
      3          7           0        3.083355   -0.368470   -1.308729
      4          1           0        4.064049   -0.292670   -1.047637
      5          1           0        0.639963    0.185154    0.808526
      6          1           0        0.483044   -0.309980   -1.033725
      7          1           0        2.867498    0.145880    0.613132
 ---------------------------------------------------------------------

 SCF Done:  E(UHF) =  -149.053680069     A.U. after    1 cycles

 Alpha  occ. eigenvalues --  -15.64791 -15.54448 -11.25151  -1.33940  -1.05849
 Alpha  occ. eigenvalues --   -0.85243  -0.75124  -0.64705  -0.57322  -0.56237
 Alpha  occ. eigenvalues --   -0.43238  -0.29818
 Alpha virt. eigenvalues --    0.12023   0.16364   0.18291   0.19734   0.22584
 Alpha virt. eigenvalues --    0.27003   0.31443   0.34566   0.39762   0.44050
 Alpha virt. eigenvalues --    0.52127   0.53264   0.55452   0.57655   0.61072

  Beta  occ. eigenvalues --  -15.65406 -15.56777 -11.23236  -1.36142  -1.08126
  Beta  occ. eigenvalues --   -0.83850  -0.75176  -0.64766  -0.61155  -0.56726
  Beta  occ. eigenvalues --   -0.46082  -0.35465
  Beta virt. eigenvalues --    0.11912   0.14929   0.18301   0.20266   0.22799
  Beta virt. eigenvalues --    0.27242   0.32715   0.39909   0.41360   0.43172
  Beta virt. eigenvalues --    0.51221   0.52040   0.55445   0.56804   0.59074

 Mulliken charges and spin densities:
               1          2
     1  C   -0.194912   0.932158
     2  N   -0.132951  -0.141751
     3  N   -0.394788  -0.699568
     4  H    0.200099   0.043082
     5  H    0.138445  -0.077809
     6  H    0.147247  -0.071268
     7  H    0.236859   0.015156
 Sum of Mulliken charges =  -0.00000   0.00000

 Dipole moment (field-independent basis, Debye):
    X=              0.5623    Y=              0.7597    Z=              2.8198  Tot=              2.9740
 Quadrupole moment (field-independent basis, Debye-Ang):
   XX=            -12.5385   YY=            -21.2696   ZZ=            -22.3126
   XY=              2.1142   XZ=              7.7661   YZ=             -0.3644

 ESP charges:
               1
     1  C   -0.631952
     2  N    0.272564
     3  N   -0.668868
     4  H    0.322331
     5  H    0.209096
     6  H    0.279155
     7  H    0.217674
 Sum of ESP charges =   0.00000

 Summary of Natural Population Analysis:

                                       Natural Population
                Natural  -----------------------------------------------
    Atom  No    Charge         Core      Valence    Rydberg      Total
 -----------------------------------------------------------------------
      C    1    0.32239      0.99974     1.66756    0.01031     2.67761
      N    2   -0.23928      0.99975     2.72098    0.01856     3.73928
      N    3   -0.55877      0.99984     3.03845    0.02048     4.05877
      H    4    0.16159      0.00000     0.33763    0.00078     0.33841
      H    5    0.06099      0.00000     0.43819    0.00082     0.43901
      H    6    0.06700      0.00000     0.43190    0.00110     0.43300
      H    7    0.18608      0.00000     0.31321    0.00072     0.31392
 =======================================================================
   * Total *    0.00000      2.99932     8.94792    0.05276    12.00000

 Normal termination of Gaussian 16 at Tue Jan  3 09:04:04 2023.
