 Gaussian 16, Revision C.01,

 ----------------------------------------------------------------------
 #p ub3lyp/gen stable=opt scf=(maxcycle=900,verytightlineq,xqc) integra
 l=grid=ultrafine symmetry=None density=current iop(99/18=-1) output=wf
 n
 ----------------------------------------------------------------------

 0001_q000_m01_k00_opt_uwb97xd_def2svpd/0001_q000_m01_k00_force_ub3lyp_
 def2svpd stable-force
 ----------------------------------------------------------------------
 Symbolic Z-matrix:
 Charge =  0 Multiplicity = 1

 SCF Done:  E(UB3LYP) =  -149.833187850     A.U. after   14 cycles
 Normal termination of Gaussian 16 at Tue Jan  3 09:04:09 2023.
 Gaussian 16:  ES64L-G16RevC.01  3-Jul-2019

 ----------------------------------------------------------------------
 #p ub3lyp/chkbasis force guess=read geom=check scf=(maxcycle=900,veryt
 ightlineq,xqc) integral=grid=ultrafine symmetry=None density=current p
 op=(cm5,hlygat,mbs,npa) output=wfx
 ----------------------------------------------------------------------

 0001_q000_m01_k00_opt_uwb97xd_def2svpd/0001_q000_m01_k00_force_ub3lyp_
 def2svpd stable-force
 ----------------------------------------------------------------------
 Structure from the checkpoint file:  "0001_q000_m01_k00_force_ub3lyp_def2svpd.chk"
 Charge =  0 Multiplicity = 1

                          Input orientation:
 ---------------------------------------------------------------------
 Center     Atomic      Atomic             Coordinates (Angstroms)
 Number     Number       Type             X           Y           Z
 ---------------------------------------------------------------------
      1          6           0        1.072617   -0.070199   -0.153013
      2          7           0        2.377944   -0.089746   -0.254385
      3          7           0        3.083355   -0.368470   -1.308729
      4          1           0        4.064049   -0.292670   -1.047637
      5          1           0        0.639963    0.185154    0.808526
      6          1           0        0.483044   -0.309980   -1.033725
      7          1           0        2.867498    0.145880    0.613132
 ---------------------------------------------------------------------

 SCF Done:  E(UB3LYP) =  -149.833187850     A.U. after    1 cycles

 Alpha  occ. eigenvalues --  -14.45376 -14.31543 -10.21403  -1.03486  -0.80648
 Alpha  occ. eigenvalues --   -0.64573  -0.56739  -0.48878  -0.43566  -0.42217
 Alpha  occ. eigenvalues --   -0.28479  -0.20470
 Alpha virt. eigenvalues --   -0.02764   0.00033   0.04521   0.07573   0.11365
 Alpha virt. eigenvalues --    0.12987   0.13246   0.14096   0.19034   0.20219
 Alpha virt. eigenvalues --    0.21470   0.21649   0.25416   0.26685   0.28094

  Beta  occ. eigenvalues --  -14.45376 -14.31543 -10.21403  -1.03486  -0.80648
  Beta  occ. eigenvalues --   -0.64573  -0.56739  -0.48878  -0.43566  -0.42217
  Beta  occ. eigenvalues --   -0.28479  -0.20470
  Beta virt. eigenvalues --   -0.02764   0.00033   0.04521   0.07573   0.11365
  Beta virt. eigenvalues --    0.12987   0.13246   0.14096   0.19034   0.20219
  Beta virt. eigenvalues --    0.21470   0.21649   0.25416   0.26685   0.28094

 Mulliken charges and spin densities:
               1          2
     1  C    0.918024   0.000000
     2  N    0.144687   0.000000
     3  N   -0.069330   0.000000
     4  H    0.021191   0.000000
     5  H   -0.359368  -0.000000
     6  H   -0.312386   0.000000
     7  H   -0.342818  -0.000000
 Sum of Mulliken charges =  -0.00000   0.00000

 Dipole moment (field-independent basis, Debye):
    X=              0.2479    Y=              0.7922    Z=              2.9480  Tot=              3.0626
 Quadrupole moment (field-independent basis, Debye-Ang):
   XX=            -14.7386   YY=            -21.2478   ZZ=            -22.9088
   XY=              2.3090   XZ=              8.5006   YZ=             -0.5433

 ESP charges:
               1
     1  C   -0.537747
     2  N    0.309242
     3  N   -0.692227
     4  H    0.293636
     5  H    0.165706
     6  H    0.250708
     7  H    0.210683
 Sum of ESP charges =   0.00000

 Summary of Natural Population Analysis:

                                       Natural Population
                Natural  -----------------------------------------------
    Atom  No    Charge         Core      Valence    Rydberg      Total
 -----------------------------------------------------------------------
      C    1   -0.13205      0.99972     2.12047    0.01186     3.13205
      N    2   -0.12989      0.99971     2.61929    0.01089     3.62989
      N    3   -0.30310      0.99981     2.78412    0.01918     3.80310
      H    4    0.16532      0.00000     0.32871    0.00597     0.33468
      H    5    0.10049      0.00000     0.39678    0.00273     0.39951
      H    6    0.10437      0.00000     0.39246    0.00317     0.39563
      H    7    0.19486      0.00000     0.30245    0.00269     0.30514
 =======================================================================
   * Total *    0.00000      2.99923     8.94428    0.05648    12.00000

 Normal termination of Gaussian 16 at Tue Jan  3 09:04:16 2023.
