 Gaussian 16, Revision C.01,

 ----------------------------------------------------------------------
 #p uhf/gen stable=opt scf=(maxcycle=900,verytightlineq,xqc) integral=g
 rid=ultrafine symmetry=None density=current iop(99/18=-1) output=wfn
 ----------------------------------------------------------------------

 0002_q000_m01_k00_opt_uwb97xd_def2svpd/0002_q000_m01_k00_force_uhf_def
 2qzvpd stable-force
 ----------------------------------------------------------------------
 Symbolic Z-matrix:
 Charge =  0 Multiplicity = 1

 SCF Done:  E(UHF) =  -168.896737919     A.U. after   13 cycles
 SCF Done:  E(UHF) =  -168.904224812     a.u. after    8 cycles
 Normal termination of Gaussian 16 at Tue Jan  3 09:40:02 2023.
 Gaussian 16:  ES64L-G16RevC.01  3-Jul-2019

 ----------------------------------------------------------------------
 #p uhf/chkbasis force guess=read geom=check scf=(maxcycle=900,verytigh
 tlineq,xqc) integral=grid=ultrafine symmetry=None density=current pop=
 (cm5,hlygat,mbs,npa) output=wfx
 ----------------------------------------------------------------------

 0002_q000_m01_k00_opt_uwb97xd_def2svpd/0002_q000_m01_k00_force_uhf_def
 2qzvpd stable-force
 ----------------------------------------------------------------------
 Structure from the checkpoint file:  "0002_q000_m01_k00_force_uhf_def2qzvpd.chk"
 Charge =  0 Multiplicity = 1

                          Input orientation:
 ---------------------------------------------------------------------
 Center     Atomic      Atomic             Coordinates (Angstroms)
 Number     Number       Type             X           Y           Z
 ---------------------------------------------------------------------
      1          6           0        0.934136   -0.050610    0.053392
      2          7           0        2.230356   -0.060728    0.097153
      3          1           0        2.710430    0.144555   -0.792940
      4          8           0        2.976899   -0.286398    1.075595
      5          1           0        0.460247    0.169182   -0.899820
      6          1           0        0.383342   -0.261341    0.966961
 ---------------------------------------------------------------------

 SCF Done:  E(UHF) =  -168.904224813     A.U. after    1 cycles

 Alpha  occ. eigenvalues --  -20.53623 -15.70207 -11.28672  -1.44521  -1.14606
 Alpha  occ. eigenvalues --   -0.89114  -0.74898  -0.67027  -0.58765  -0.58708
 Alpha  occ. eigenvalues --   -0.43832  -0.34734
 Alpha virt. eigenvalues --    0.04886   0.08184   0.09396   0.10584   0.13262
 Alpha virt. eigenvalues --    0.13608   0.14124   0.16357   0.18005   0.20781
 Alpha virt. eigenvalues --    0.20880   0.23390   0.24026   0.26274   0.26450

  Beta  occ. eigenvalues --  -20.55577 -15.71582 -11.26945  -1.48186  -1.16634
  Beta  occ. eigenvalues --   -0.88172  -0.74618  -0.68041  -0.67526  -0.58613
  Beta  occ. eigenvalues --   -0.45776  -0.41139
  Beta virt. eigenvalues --    0.05001   0.08181   0.09388   0.09482   0.13083
  Beta virt. eigenvalues --    0.13229   0.14302   0.16569   0.17623   0.20768
  Beta virt. eigenvalues --    0.21097   0.23614   0.26268   0.26597   0.27327

 Mulliken charges and spin densities:
               1          2
     1  C   -0.079388   0.869843
     2  N    0.074421  -0.392331
     3  H    0.246118   0.033165
     4  O   -0.528310  -0.381801
     5  H    0.131436  -0.076848
     6  H    0.155722  -0.052027
 Sum of Mulliken charges =  -0.00000   0.00000

 Dipole moment (field-independent basis, Debye):
    X=             -2.2659    Y=              0.6959    Z=             -3.0177  Tot=              3.8373
 Quadrupole moment (field-independent basis, Debye-Ang):
   XX=            -27.1313   YY=            -19.1875   ZZ=            -18.8869
   XY=              2.3023   XZ=             -9.6058   YZ=              0.0555

 ESP charges:
               1
     1  C   -0.416379
     2  N    0.249647
     3  H    0.234399
     4  O   -0.485614
     5  H    0.173439
     6  H    0.244507
 Sum of ESP charges =  -0.00000

 Summary of Natural Population Analysis:

                                       Natural Population
                Natural  -----------------------------------------------
    Atom  No    Charge         Core      Valence    Rydberg      Total
 -----------------------------------------------------------------------
      C    1    0.30724      0.99970     1.68072    0.01234     2.69276
      N    2   -0.20858      0.99972     2.68516    0.02370     3.70858
      H    3    0.19081      0.00000     0.30690    0.00229     0.30919
      O    4   -0.43628      0.99992     3.42412    0.01223     4.43628
      H    5    0.06971      0.00000     0.42958    0.00071     0.43029
      H    6    0.07710      0.00000     0.42198    0.00092     0.42290
 =======================================================================
   * Total *    0.00000      2.99934     8.94846    0.05220    12.00000

 Normal termination of Gaussian 16 at Tue Jan  3 09:41:57 2023.
