 Gaussian 16, Revision C.01,

 ----------------------------------------------------------------------
 #p uhf/gen stable=opt scf=(maxcycle=900,verytightlineq,xqc) integral=g
 rid=ultrafine symmetry=None density=current iop(99/18=-1) output=wfn
 ----------------------------------------------------------------------

 0002_q000_m01_k00_opt_uwb97xd_def2svpd/0002_q000_m01_k00_force_uhf_def
 2svpd stable-force
 ----------------------------------------------------------------------
 Symbolic Z-matrix:
 Charge =  0 Multiplicity = 1

 SCF Done:  E(UHF) =  -168.696868558     A.U. after   13 cycles
 SCF Done:  E(UHF) =  -168.704544338     a.u. after    8 cycles
 Normal termination of Gaussian 16 at Tue Jan  3 09:04:40 2023.
 Gaussian 16:  ES64L-G16RevC.01  3-Jul-2019

 ----------------------------------------------------------------------
 #p uhf/chkbasis force guess=read geom=check scf=(maxcycle=900,verytigh
 tlineq,xqc) integral=grid=ultrafine symmetry=None density=current pop=
 (cm5,hlygat,mbs,npa) output=wfx
 ----------------------------------------------------------------------

 0002_q000_m01_k00_opt_uwb97xd_def2svpd/0002_q000_m01_k00_force_uhf_def
 2svpd stable-force
 ----------------------------------------------------------------------
 Structure from the checkpoint file:  "0002_q000_m01_k00_force_uhf_def2svpd.chk"
 Charge =  0 Multiplicity = 1

                          Input orientation:
 ---------------------------------------------------------------------
 Center     Atomic      Atomic             Coordinates (Angstroms)
 Number     Number       Type             X           Y           Z
 ---------------------------------------------------------------------
      1          6           0        0.934136   -0.050610    0.053392
      2          7           0        2.230356   -0.060728    0.097153
      3          1           0        2.710430    0.144555   -0.792940
      4          8           0        2.976899   -0.286398    1.075595
      5          1           0        0.460247    0.169182   -0.899820
      6          1           0        0.383342   -0.261341    0.966961
 ---------------------------------------------------------------------

 SCF Done:  E(UHF) =  -168.704544338     A.U. after    1 cycles

 Alpha  occ. eigenvalues --  -20.53945 -15.70759 -11.29664  -1.43531  -1.13803
 Alpha  occ. eigenvalues --   -0.88691  -0.75080  -0.67136  -0.59130  -0.59082
 Alpha  occ. eigenvalues --   -0.44064  -0.34973
 Alpha virt. eigenvalues --    0.09101   0.12734   0.12840   0.19144   0.19721
 Alpha virt. eigenvalues --    0.20275   0.20685   0.23034   0.25659   0.26306
 Alpha virt. eigenvalues --    0.27859   0.31615   0.35176   0.37134   0.40887

  Beta  occ. eigenvalues --  -20.55980 -15.72213 -11.27785  -1.47166  -1.15687
  Beta  occ. eigenvalues --   -0.87971  -0.74658  -0.68310  -0.67995  -0.58920
  Beta  occ. eigenvalues --   -0.46106  -0.41453
  Beta virt. eigenvalues --    0.09295   0.11780   0.12729   0.19019   0.20079
  Beta virt. eigenvalues --    0.20208   0.20581   0.23613   0.25404   0.26519
  Beta virt. eigenvalues --    0.27798   0.34028   0.35842   0.37514   0.41021

 Mulliken charges and spin densities:
               1          2
     1  C    0.501510   0.939605
     2  N    0.248696  -0.453883
     3  H   -0.004402   0.045905
     4  O   -0.665083  -0.368552
     5  H   -0.037949  -0.094461
     6  H   -0.042771  -0.068614
 Sum of Mulliken charges =  -0.00000   0.00000

 Dipole moment (field-independent basis, Debye):
    X=             -2.3439    Y=              0.7151    Z=             -3.1008  Tot=              3.9522
 Quadrupole moment (field-independent basis, Debye-Ang):
   XX=            -27.6131   YY=            -19.2054   ZZ=            -19.0912
   XY=              2.3598   XZ=             -9.8424   YZ=              0.1044

 ESP charges:
               1
     1  C   -0.375097
     2  N    0.240059
     3  H    0.239361
     4  O   -0.497381
     5  H    0.161210
     6  H    0.231848
 Sum of ESP charges =  -0.00000

 Summary of Natural Population Analysis:

                                       Natural Population
                Natural  -----------------------------------------------
    Atom  No    Charge         Core      Valence    Rydberg      Total
 -----------------------------------------------------------------------
      C    1    0.31806      0.99971     1.67127    0.01095     2.68194
      N    2   -0.21730      0.99971     2.69847    0.01912     3.71730
      H    3    0.19858      0.00000     0.29768    0.00374     0.30142
      O    4   -0.45087      0.99990     3.43685    0.01412     4.45087
      H    5    0.07374      0.00000     0.42440    0.00185     0.42626
      H    6    0.07778      0.00000     0.41901    0.00322     0.42222
 =======================================================================
   * Total *    0.00000      2.99932     8.94768    0.05300    12.00000

 Normal termination of Gaussian 16 at Tue Jan  3 09:04:45 2023.
