 Gaussian 16, Revision C.01,

 ----------------------------------------------------------------------
 #p uwb97xd/gen stable=opt scf=(maxcycle=900,verytightlineq,xqc) integr
 al=grid=ultrafine symmetry=None density=current iop(99/18=-1) output=w
 fn
 ----------------------------------------------------------------------

 0002_q000_m01_k00_opt_uwb97xd_def2svpd/0002_q000_m01_k00_force_uwb97xd
 _def2tzvp stable-force
 ----------------------------------------------------------------------
 Symbolic Z-matrix:
 Charge =  0 Multiplicity = 1

 SCF Done:  E(UwB97XD) =  -169.811284339     A.U. after   15 cycles
 Normal termination of Gaussian 16 at Tue Jan  3 09:06:15 2023.
 Gaussian 16:  ES64L-G16RevC.01  3-Jul-2019

 ----------------------------------------------------------------------
 #p uwb97xd/chkbasis force guess=read geom=check scf=(maxcycle=900,very
 tightlineq,xqc) integral=grid=ultrafine symmetry=None density=current
 pop=(cm5,hlygat,mbs,npa) output=wfx
 ----------------------------------------------------------------------

 0002_q000_m01_k00_opt_uwb97xd_def2svpd/0002_q000_m01_k00_force_uwb97xd
 _def2tzvp stable-force
 ----------------------------------------------------------------------
 Structure from the checkpoint file:  "0002_q000_m01_k00_force_uwb97xd_def2tzvp.chk"
 Charge =  0 Multiplicity = 1

                          Input orientation:
 ---------------------------------------------------------------------
 Center     Atomic      Atomic             Coordinates (Angstroms)
 Number     Number       Type             X           Y           Z
 ---------------------------------------------------------------------
      1          6           0        0.934136   -0.050610    0.053392
      2          7           0        2.230356   -0.060728    0.097153
      3          1           0        2.710430    0.144555   -0.792940
      4          8           0        2.976899   -0.286398    1.075595
      5          1           0        0.460247    0.169182   -0.899820
      6          1           0        0.383342   -0.261341    0.966961
 ---------------------------------------------------------------------

 SCF Done:  E(UwB97XD) =  -169.811284339     A.U. after    1 cycles

 Alpha  occ. eigenvalues --  -19.22995 -14.58781 -10.33263  -1.22313  -0.96658
 Alpha  occ. eigenvalues --   -0.76186  -0.64466  -0.57706  -0.55054  -0.51026
 Alpha  occ. eigenvalues --   -0.34767  -0.31775
 Alpha virt. eigenvalues --    0.03415   0.09736   0.15113   0.18161   0.22436
 Alpha virt. eigenvalues --    0.24747   0.29581   0.29826   0.38423   0.42780
 Alpha virt. eigenvalues --    0.45760   0.49279   0.50327   0.53796   0.55250

  Beta  occ. eigenvalues --  -19.22995 -14.58781 -10.33263  -1.22313  -0.96658
  Beta  occ. eigenvalues --   -0.76186  -0.64466  -0.57706  -0.55054  -0.51026
  Beta  occ. eigenvalues --   -0.34767  -0.31775
  Beta virt. eigenvalues --    0.03415   0.09736   0.15113   0.18161   0.22436
  Beta virt. eigenvalues --    0.24747   0.29581   0.29826   0.38423   0.42780
  Beta virt. eigenvalues --    0.45760   0.49279   0.50327   0.53796   0.55250

 Mulliken charges and spin densities:
               1          2
     1  C   -0.229962   0.000000
     2  N    0.152187   0.000000
     3  H    0.236648   0.000000
     4  O   -0.463224   0.000000
     5  H    0.143346   0.000000
     6  H    0.161006   0.000000
 Sum of Mulliken charges =   0.00000   0.00000

 Dipole moment (field-independent basis, Debye):
    X=             -2.0273    Y=              0.6849    Z=             -2.9699  Tot=              3.6605
 Quadrupole moment (field-independent basis, Debye-Ang):
   XX=            -25.9820   YY=            -19.0676   ZZ=            -18.7863
   XY=              2.2488   XZ=             -9.4136   YZ=              0.0581

 ESP charges:
               1
     1  C   -0.500161
     2  N    0.295125
     3  H    0.229902
     4  O   -0.477797
     5  H    0.193297
     6  H    0.259634
 Sum of ESP charges =  -0.00000

 Summary of Natural Population Analysis:

                                       Natural Population
                Natural  -----------------------------------------------
    Atom  No    Charge         Core      Valence    Rydberg      Total
 -----------------------------------------------------------------------
      C    1   -0.12230      0.99971     2.11170    0.01089     3.12230
      N    2   -0.00680      0.99969     2.48792    0.01919     3.50680
      H    3    0.17317      0.00000     0.32533    0.00150     0.32683
      O    4   -0.24572      0.99994     3.23639    0.00939     4.24572
      H    5    0.09722      0.00000     0.40196    0.00082     0.40278
      H    6    0.10443      0.00000     0.39452    0.00105     0.39557
 =======================================================================
   * Total *   -0.00000      2.99933     8.95782    0.04285    12.00000

 Normal termination of Gaussian 16 at Tue Jan  3 09:06:28 2023.
