 Gaussian 16, Revision C.01,

 ----------------------------------------------------------------------
 #p uhf/gen stable=opt scf=(maxcycle=900,verytightlineq,xqc) integral=g
 rid=ultrafine symmetry=None density=current iop(99/18=-1) output=wfn
 ----------------------------------------------------------------------

 0002_q000_m01_k00_opt_uwb97xd_def2svpd/0002_q000_m01_k00_force_uhf_def
 2qzvp stable-force
 ----------------------------------------------------------------------
 Symbolic Z-matrix:
 Charge =  0 Multiplicity = 1

 SCF Done:  E(UHF) =  -168.896300468     A.U. after   14 cycles
 SCF Done:  E(UHF) =  -168.903875229     a.u. after    8 cycles
 Normal termination of Gaussian 16 at Tue Jan  3 09:27:57 2023.
 Gaussian 16:  ES64L-G16RevC.01  3-Jul-2019

 ----------------------------------------------------------------------
 #p uhf/chkbasis force guess=read geom=check scf=(maxcycle=900,verytigh
 tlineq,xqc) integral=grid=ultrafine symmetry=None density=current pop=
 (cm5,hlygat,mbs,npa) output=wfx
 ----------------------------------------------------------------------

 0002_q000_m01_k00_opt_uwb97xd_def2svpd/0002_q000_m01_k00_force_uhf_def
 2qzvp stable-force
 ----------------------------------------------------------------------
 Structure from the checkpoint file:  "0002_q000_m01_k00_force_uhf_def2qzvp.chk"
 Charge =  0 Multiplicity = 1

                          Input orientation:
 ---------------------------------------------------------------------
 Center     Atomic      Atomic             Coordinates (Angstroms)
 Number     Number       Type             X           Y           Z
 ---------------------------------------------------------------------
      1          6           0        0.934136   -0.050610    0.053392
      2          7           0        2.230356   -0.060728    0.097153
      3          1           0        2.710430    0.144555   -0.792940
      4          8           0        2.976899   -0.286398    1.075595
      5          1           0        0.460247    0.169182   -0.899820
      6          1           0        0.383342   -0.261341    0.966961
 ---------------------------------------------------------------------

 SCF Done:  E(UHF) =  -168.903875229     A.U. after    1 cycles

 Alpha  occ. eigenvalues --  -20.55517 -15.71527 -11.26885  -1.48137  -1.16593
 Alpha  occ. eigenvalues --   -0.88130  -0.74577  -0.67993  -0.67491  -0.58574
 Alpha  occ. eigenvalues --   -0.45735  -0.41109
 Alpha virt. eigenvalues --    0.09147   0.10581   0.12804   0.16379   0.20392
 Alpha virt. eigenvalues --    0.23491   0.26284   0.29456   0.33359   0.35747
 Alpha virt. eigenvalues --    0.39067   0.42127   0.43912   0.45422   0.47914

  Beta  occ. eigenvalues --  -20.53559 -15.70153 -11.28617  -1.44474  -1.14561
  Beta  occ. eigenvalues --   -0.89081  -0.74861  -0.66979  -0.58725  -0.58680
  Beta  occ. eigenvalues --   -0.43796  -0.34693
  Beta virt. eigenvalues --    0.09105   0.12534   0.13118   0.16227   0.20330
  Beta virt. eigenvalues --    0.21550   0.23581   0.28517   0.33336   0.36267
  Beta virt. eigenvalues --    0.38998   0.41997   0.45414   0.46233   0.47348

 Mulliken charges and spin densities:
               1          2
     1  C   -0.104529  -0.867921
     2  N    0.055873   0.379065
     3  H    0.231571  -0.032396
     4  O   -0.443586   0.373412
     5  H    0.108444   0.077749
     6  H    0.152227   0.070091
 Sum of Mulliken charges =  -0.00000   0.00000

 Dipole moment (field-independent basis, Debye):
    X=             -2.2515    Y=              0.7016    Z=             -3.0422  Tot=              3.8492
 Quadrupole moment (field-independent basis, Debye-Ang):
   XX=            -27.0573   YY=            -19.1561   ZZ=            -18.8741
   XY=              2.3124   XZ=             -9.6522   YZ=              0.0610

 ESP charges:
               1
     1  C   -0.426400
     2  N    0.259531
     3  H    0.233895
     4  O   -0.489387
     5  H    0.176944
     6  H    0.245417
 Sum of ESP charges =  -0.00000

 Summary of Natural Population Analysis:

                                       Natural Population
                Natural  -----------------------------------------------
    Atom  No    Charge         Core      Valence    Rydberg      Total
 -----------------------------------------------------------------------
      C    1   -0.44543      0.99971     2.42712    0.01859     3.44543
      N    2    0.13083      0.99973     2.34664    0.02280     3.36917
      H    3    0.16807      0.00000     0.32976    0.00217     0.33193
      O    4   -0.07526      0.99993     3.06143    0.01390     4.07526
      H    5    0.10727      0.00000     0.39177    0.00096     0.39273
      H    6    0.11453      0.00000     0.38423    0.00124     0.38547
 =======================================================================
   * Total *   -0.00000      2.99937     8.94096    0.05968    12.00000

 Normal termination of Gaussian 16 at Tue Jan  3 09:29:17 2023.
