 Gaussian 16, Revision C.01,

 ----------------------------------------------------------------------
 #p uhf/gen stable=opt scf=(maxcycle=900,verytightlineq,xqc) integral=g
 rid=ultrafine symmetry=None density=current iop(99/18=-1) output=wfn
 ----------------------------------------------------------------------

 0002_q000_m01_k00_opt_uwb97xd_def2svpd/0002_q000_m01_k00_force_uhf_def
 2tzvp stable-force
 ----------------------------------------------------------------------
 Symbolic Z-matrix:
 Charge =  0 Multiplicity = 1

 SCF Done:  E(UHF) =  -168.886060374     A.U. after   13 cycles
 SCF Done:  E(UHF) =  -168.893836260     a.u. after    8 cycles
 Normal termination of Gaussian 16 at Tue Jan  3 09:04:50 2023.
 Gaussian 16:  ES64L-G16RevC.01  3-Jul-2019

 ----------------------------------------------------------------------
 #p uhf/chkbasis force guess=read geom=check scf=(maxcycle=900,verytigh
 tlineq,xqc) integral=grid=ultrafine symmetry=None density=current pop=
 (cm5,hlygat,mbs,npa) output=wfx
 ----------------------------------------------------------------------

 0002_q000_m01_k00_opt_uwb97xd_def2svpd/0002_q000_m01_k00_force_uhf_def
 2tzvp stable-force
 ----------------------------------------------------------------------
 Structure from the checkpoint file:  "0002_q000_m01_k00_force_uhf_def2tzvp.chk"
 Charge =  0 Multiplicity = 1

                          Input orientation:
 ---------------------------------------------------------------------
 Center     Atomic      Atomic             Coordinates (Angstroms)
 Number     Number       Type             X           Y           Z
 ---------------------------------------------------------------------
      1          6           0        0.934136   -0.050610    0.053392
      2          7           0        2.230356   -0.060728    0.097153
      3          1           0        2.710430    0.144555   -0.792940
      4          8           0        2.976899   -0.286398    1.075595
      5          1           0        0.460247    0.169182   -0.899820
      6          1           0        0.383342   -0.261341    0.966961
 ---------------------------------------------------------------------

 SCF Done:  E(UHF) =  -168.893836260     A.U. after    1 cycles

 Alpha  occ. eigenvalues --  -20.53356 -15.69949 -11.28483  -1.44350  -1.14436
 Alpha  occ. eigenvalues --   -0.88986  -0.74758  -0.66839  -0.58614  -0.58604
 Alpha  occ. eigenvalues --   -0.43677  -0.34525
 Alpha virt. eigenvalues --    0.12731   0.14466   0.17585   0.20823   0.25139
 Alpha virt. eigenvalues --    0.28649   0.32639   0.34992   0.44800   0.53126
 Alpha virt. eigenvalues --    0.53829   0.58018   0.58566   0.63716   0.65423

  Beta  occ. eigenvalues --  -20.55354 -15.71329 -11.26713  -1.48003  -1.16477
  Beta  occ. eigenvalues --   -0.88013  -0.74461  -0.67860  -0.67381  -0.58467
  Beta  occ. eigenvalues --   -0.45619  -0.40991
  Beta virt. eigenvalues --    0.12298   0.12642   0.18306   0.21053   0.25380
  Beta virt. eigenvalues --    0.29260   0.35036   0.38964   0.44582   0.52357
  Beta virt. eigenvalues --    0.52967   0.58279   0.60298   0.63266   0.65274

 Mulliken charges and spin densities:
               1          2
     1  C   -0.154850   0.847510
     2  N    0.092483  -0.374284
     3  H    0.245862   0.031568
     4  O   -0.489511  -0.377875
     5  H    0.146072  -0.065523
     6  H    0.159942  -0.061397
 Sum of Mulliken charges =  -0.00000  -0.00000

 Dipole moment (field-independent basis, Debye):
    X=             -2.2075    Y=              0.7075    Z=             -3.0678  Tot=              3.8451
 Quadrupole moment (field-independent basis, Debye-Ang):
   XX=            -26.8233   YY=            -19.1142   ZZ=            -18.7982
   XY=              2.3183   XZ=             -9.6850   YZ=              0.0538

 ESP charges:
               1
     1  C   -0.450549
     2  N    0.266920
     3  H    0.237099
     4  O   -0.489425
     5  H    0.185646
     6  H    0.250309
 Sum of ESP charges =  -0.00000

 Summary of Natural Population Analysis:

                                       Natural Population
                Natural  -----------------------------------------------
    Atom  No    Charge         Core      Valence    Rydberg      Total
 -----------------------------------------------------------------------
      C    1    0.30835      0.99972     1.68253    0.00940     2.69165
      N    2   -0.20020      0.99968     2.67668    0.02384     3.70020
      H    3    0.18450      0.00000     0.31446    0.00104     0.31550
      O    4   -0.43223      0.99993     3.42179    0.01050     4.43223
      H    5    0.06612      0.00000     0.43298    0.00090     0.43388
      H    6    0.07346      0.00000     0.42540    0.00115     0.42654
 =======================================================================
   * Total *    0.00000      2.99933     8.95384    0.04683    12.00000

 Normal termination of Gaussian 16 at Tue Jan  3 09:04:57 2023.
