 Gaussian 16, Revision C.01,

 ----------------------------------------------------------------------
 #p ub3lyp/gen stable=opt scf=(maxcycle=900,verytightlineq,xqc) integra
 l=grid=ultrafine symmetry=None density=current iop(99/18=-1) output=wf
 n
 ----------------------------------------------------------------------

 0002_q000_m01_k00_opt_uwb97xd_def2svpd/0002_q000_m01_k00_force_ub3lyp_
 def2tzvp stable-force
 ----------------------------------------------------------------------
 Symbolic Z-matrix:
 Charge =  0 Multiplicity = 1

 SCF Done:  E(UB3LYP) =  -169.875209200     A.U. after   13 cycles
 Normal termination of Gaussian 16 at Tue Jan  3 09:05:21 2023.
 Gaussian 16:  ES64L-G16RevC.01  3-Jul-2019

 ----------------------------------------------------------------------
 #p ub3lyp/chkbasis force guess=read geom=check scf=(maxcycle=900,veryt
 ightlineq,xqc) integral=grid=ultrafine symmetry=None density=current p
 op=(cm5,hlygat,mbs,npa) output=wfx
 ----------------------------------------------------------------------

 0002_q000_m01_k00_opt_uwb97xd_def2svpd/0002_q000_m01_k00_force_ub3lyp_
 def2tzvp stable-force
 ----------------------------------------------------------------------
 Structure from the checkpoint file:  "0002_q000_m01_k00_force_ub3lyp_def2tzvp.chk"
 Charge =  0 Multiplicity = 1

                          Input orientation:
 ---------------------------------------------------------------------
 Center     Atomic      Atomic             Coordinates (Angstroms)
 Number     Number       Type             X           Y           Z
 ---------------------------------------------------------------------
      1          6           0        0.934136   -0.050610    0.053392
      2          7           0        2.230356   -0.060728    0.097153
      3          1           0        2.710430    0.144555   -0.792940
      4          8           0        2.976899   -0.286398    1.075595
      5          1           0        0.460247    0.169182   -0.899820
      6          1           0        0.383342   -0.261341    0.966961
 ---------------------------------------------------------------------

 SCF Done:  E(UB3LYP) =  -169.875209200     A.U. after    1 cycles

 Alpha  occ. eigenvalues --  -19.11340 -14.46852 -10.22184  -1.12481  -0.87105
 Alpha  occ. eigenvalues --   -0.67060  -0.55745  -0.49264  -0.46418  -0.42965
 Alpha  occ. eigenvalues --   -0.26825  -0.24447
 Alpha virt. eigenvalues --   -0.04306   0.01361   0.06825   0.10022   0.14243
 Alpha virt. eigenvalues --    0.16198   0.21136   0.21295   0.29895   0.34556
 Alpha virt. eigenvalues --    0.36454   0.41031   0.41546   0.44929   0.46278

  Beta  occ. eigenvalues --  -19.11340 -14.46852 -10.22184  -1.12481  -0.87105
  Beta  occ. eigenvalues --   -0.67060  -0.55745  -0.49264  -0.46418  -0.42965
  Beta  occ. eigenvalues --   -0.26825  -0.24447
  Beta virt. eigenvalues --   -0.04306   0.01361   0.06825   0.10022   0.14243
  Beta virt. eigenvalues --    0.16198   0.21136   0.21295   0.29895   0.34556
  Beta virt. eigenvalues --    0.36454   0.41031   0.41546   0.44929   0.46278

 Mulliken charges and spin densities:
               1          2
     1  C   -0.202903  -0.000000
     2  N    0.154457   0.000000
     3  H    0.217936   0.000000
     4  O   -0.435984   0.000000
     5  H    0.123954  -0.000000
     6  H    0.142539  -0.000000
 Sum of Mulliken charges =  -0.00000  -0.00000

 Dipole moment (field-independent basis, Debye):
    X=             -1.9503    Y=              0.6620    Z=             -2.8705  Tot=              3.5329
 Quadrupole moment (field-independent basis, Debye-Ang):
   XX=            -25.9042   YY=            -19.2060   ZZ=            -18.9836
   XY=              2.1805   XZ=             -9.1301   YZ=              0.0682

 ESP charges:
               1
     1  C   -0.496888
     2  N    0.309609
     3  H    0.215655
     4  O   -0.469692
     5  H    0.187692
     6  H    0.253623
 Sum of ESP charges =  -0.00000

 Summary of Natural Population Analysis:

                                       Natural Population
                Natural  -----------------------------------------------
    Atom  No    Charge         Core      Valence    Rydberg      Total
 -----------------------------------------------------------------------
      C    1   -0.11889      0.99970     2.10767    0.01151     3.11889
      N    2   -0.01025      0.99969     2.49179    0.01877     3.51025
      H    3    0.16907      0.00000     0.32898    0.00195     0.33093
      O    4   -0.23796      0.99993     3.22862    0.00941     4.23796
      H    5    0.09564      0.00000     0.40337    0.00099     0.40436
      H    6    0.10239      0.00000     0.39639    0.00122     0.39761
 =======================================================================
   * Total *    0.00000      2.99932     8.95683    0.04385    12.00000

 Normal termination of Gaussian 16 at Tue Jan  3 09:05:31 2023.
