 Gaussian 16, Revision C.01,

 ----------------------------------------------------------------------
 #p ub3lyp/gen stable=opt scf=(maxcycle=900,verytightlineq,xqc) integra
 l=grid=ultrafine symmetry=None density=current iop(99/18=-1) output=wf
 n
 ----------------------------------------------------------------------

 0002_q000_m01_k00_opt_uwb97xd_def2svpd/0002_q000_m01_k00_force_ub3lyp_
 def2qzvp stable-force
 ----------------------------------------------------------------------
 Symbolic Z-matrix:
 Charge =  0 Multiplicity = 1

 SCF Done:  E(UB3LYP) =  -169.888042721     A.U. after   12 cycles
 Normal termination of Gaussian 16 at Tue Jan  3 09:14:22 2023.
 Gaussian 16:  ES64L-G16RevC.01  3-Jul-2019

 ----------------------------------------------------------------------
 #p ub3lyp/chkbasis force guess=read geom=check scf=(maxcycle=900,veryt
 ightlineq,xqc) integral=grid=ultrafine symmetry=None density=current p
 op=(cm5,hlygat,mbs,npa) output=wfx
 ----------------------------------------------------------------------

 0002_q000_m01_k00_opt_uwb97xd_def2svpd/0002_q000_m01_k00_force_ub3lyp_
 def2qzvp stable-force
 ----------------------------------------------------------------------
 Structure from the checkpoint file:  "0002_q000_m01_k00_force_ub3lyp_def2qzvp.chk"
 Charge =  0 Multiplicity = 1

                          Input orientation:
 ---------------------------------------------------------------------
 Center     Atomic      Atomic             Coordinates (Angstroms)
 Number     Number       Type             X           Y           Z
 ---------------------------------------------------------------------
      1          6           0        0.934136   -0.050610    0.053392
      2          7           0        2.230356   -0.060728    0.097153
      3          1           0        2.710430    0.144555   -0.792940
      4          8           0        2.976899   -0.286398    1.075595
      5          1           0        0.460247    0.169182   -0.899820
      6          1           0        0.383342   -0.261341    0.966961
 ---------------------------------------------------------------------

 SCF Done:  E(UB3LYP) =  -169.888042721     A.U. after    1 cycles

 Alpha  occ. eigenvalues --  -19.11815 -14.47266 -10.22604  -1.12694  -0.87290
 Alpha  occ. eigenvalues --   -0.67199  -0.55909  -0.49501  -0.46610  -0.43145
 Alpha  occ. eigenvalues --   -0.27116  -0.24723
 Alpha virt. eigenvalues --   -0.04712  -0.00112   0.03898   0.07840   0.11276
 Alpha virt. eigenvalues --    0.12198   0.12590   0.17507   0.22474   0.23601
 Alpha virt. eigenvalues --    0.25233   0.28653   0.29939   0.31069   0.33970

  Beta  occ. eigenvalues --  -19.11815 -14.47266 -10.22604  -1.12694  -0.87290
  Beta  occ. eigenvalues --   -0.67199  -0.55909  -0.49501  -0.46610  -0.43145
  Beta  occ. eigenvalues --   -0.27116  -0.24723
  Beta virt. eigenvalues --   -0.04712  -0.00112   0.03898   0.07840   0.11276
  Beta virt. eigenvalues --    0.12198   0.12590   0.17507   0.22474   0.23601
  Beta virt. eigenvalues --    0.25233   0.28653   0.29939   0.31069   0.33970

 Mulliken charges and spin densities:
               1          2
     1  C   -0.026955  -0.000000
     2  N    0.091128   0.000000
     3  H    0.172555  -0.000000
     4  O   -0.397767  -0.000000
     5  H    0.059306   0.000000
     6  H    0.101733  -0.000000
 Sum of Mulliken charges =  -0.00000   0.00000

 Dipole moment (field-independent basis, Debye):
    X=             -2.0106    Y=              0.6559    Z=             -2.8442  Tot=              3.5443
 Quadrupole moment (field-independent basis, Debye-Ang):
   XX=            -26.2509   YY=            -19.2676   ZZ=            -19.1221
   XY=              2.1783   XZ=             -9.1107   YZ=              0.0859

 ESP charges:
               1
     1  C   -0.468844
     2  N    0.308778
     3  H    0.209140
     4  O   -0.473350
     5  H    0.176776
     6  H    0.247500
 Sum of ESP charges =  -0.00000

 Summary of Natural Population Analysis:

                                       Natural Population
                Natural  -----------------------------------------------
    Atom  No    Charge         Core      Valence    Rydberg      Total
 -----------------------------------------------------------------------
      C    1   -0.11455      0.99971     2.10223    0.01262     3.11455
      N    2   -0.01528      0.99972     2.49755    0.01801     3.51528
      H    3    0.17626      0.00000     0.32044    0.00331     0.32374
      O    4   -0.24997      0.99993     3.23805    0.01199     4.24997
      H    5    0.09835      0.00000     0.40036    0.00129     0.40165
      H    6    0.10519      0.00000     0.39320    0.00161     0.39481
 =======================================================================
   * Total *    0.00000      2.99935     8.95182    0.04882    12.00000

 Normal termination of Gaussian 16 at Tue Jan  3 09:15:52 2023.
