 Gaussian 16, Revision C.01,

 ----------------------------------------------------------------------
 #p uwb97xd/gen stable=opt scf=(maxcycle=900,verytightlineq,xqc) integr
 al=grid=ultrafine symmetry=None density=current iop(99/18=-1) output=w
 fn
 ----------------------------------------------------------------------

 0002_q000_m01_k00_opt_uwb97xd_def2svpd/0002_q000_m01_k00_force_uwb97xd
 _def2tzvpd stable-force
 ----------------------------------------------------------------------
 Symbolic Z-matrix:
 Charge =  0 Multiplicity = 1

 SCF Done:  E(UwB97XD) =  -169.813422347     A.U. after   12 cycles
 Normal termination of Gaussian 16 at Tue Jan  3 09:07:08 2023.
 Gaussian 16:  ES64L-G16RevC.01  3-Jul-2019

 ----------------------------------------------------------------------
 #p uwb97xd/chkbasis force guess=read geom=check scf=(maxcycle=900,very
 tightlineq,xqc) integral=grid=ultrafine symmetry=None density=current
 pop=(cm5,hlygat,mbs,npa) output=wfx
 ----------------------------------------------------------------------

 0002_q000_m01_k00_opt_uwb97xd_def2svpd/0002_q000_m01_k00_force_uwb97xd
 _def2tzvpd stable-force
 ----------------------------------------------------------------------
 Structure from the checkpoint file:  "0002_q000_m01_k00_force_uwb97xd_def2tzvpd.chk"
 Charge =  0 Multiplicity = 1

                          Input orientation:
 ---------------------------------------------------------------------
 Center     Atomic      Atomic             Coordinates (Angstroms)
 Number     Number       Type             X           Y           Z
 ---------------------------------------------------------------------
      1          6           0        0.934136   -0.050610    0.053392
      2          7           0        2.230356   -0.060728    0.097153
      3          1           0        2.710430    0.144555   -0.792940
      4          8           0        2.976899   -0.286398    1.075595
      5          1           0        0.460247    0.169182   -0.899820
      6          1           0        0.383342   -0.261341    0.966961
 ---------------------------------------------------------------------

 SCF Done:  E(UwB97XD) =  -169.813422347     A.U. after    1 cycles

 Alpha  occ. eigenvalues --  -19.23452 -14.58963 -10.33500  -1.22550  -0.96850
 Alpha  occ. eigenvalues --   -0.76330  -0.64639  -0.57948  -0.55243  -0.51215
 Alpha  occ. eigenvalues --   -0.35038  -0.32048
 Alpha virt. eigenvalues --    0.02961   0.05885   0.08548   0.11775   0.13864
 Alpha virt. eigenvalues --    0.14160   0.14911   0.16747   0.19820   0.21249
 Alpha virt. eigenvalues --    0.21350   0.25732   0.26555   0.27669   0.28561

  Beta  occ. eigenvalues --  -19.23452 -14.58963 -10.33500  -1.22550  -0.96850
  Beta  occ. eigenvalues --   -0.76330  -0.64639  -0.57948  -0.55243  -0.51215
  Beta  occ. eigenvalues --   -0.35038  -0.32048
  Beta virt. eigenvalues --    0.02961   0.05885   0.08548   0.11775   0.13864
  Beta virt. eigenvalues --    0.14160   0.14911   0.16747   0.19820   0.21249
  Beta virt. eigenvalues --    0.21350   0.25732   0.26555   0.27669   0.28561

 Mulliken charges and spin densities:
               1          2
     1  C   -0.503802   0.000000
     2  N    0.241905   0.000000
     3  H    0.219108   0.000000
     4  O   -0.614421   0.000000
     5  H    0.316270   0.000000
     6  H    0.340941   0.000000
 Sum of Mulliken charges =   0.00000   0.00000

 Dipole moment (field-independent basis, Debye):
    X=             -2.1024    Y=              0.6719    Z=             -2.9133  Tot=              3.6550
 Quadrupole moment (field-independent basis, Debye-Ang):
   XX=            -26.3723   YY=            -19.1637   ZZ=            -18.9205
   XY=              2.2296   XZ=             -9.3179   YZ=              0.0650

 ESP charges:
               1
     1  C   -0.456442
     2  N    0.269025
     3  H    0.228314
     4  O   -0.471730
     5  H    0.178578
     6  H    0.252256
 Sum of ESP charges =  -0.00000

 Summary of Natural Population Analysis:

                                       Natural Population
                Natural  -----------------------------------------------
    Atom  No    Charge         Core      Valence    Rydberg      Total
 -----------------------------------------------------------------------
      C    1   -0.11686      0.99972     2.10674    0.01040     3.11686
      N    2   -0.00971      0.99971     2.48746    0.02255     3.50971
      H    3    0.17565      0.00000     0.32207    0.00228     0.32435
      O    4   -0.25055      0.99993     3.23880    0.01182     4.25055
      H    5    0.09729      0.00000     0.40088    0.00182     0.40271
      H    6    0.10418      0.00000     0.39375    0.00207     0.39582
 =======================================================================
   * Total *   -0.00000      2.99937     8.94970    0.05094    12.00000

 Normal termination of Gaussian 16 at Tue Jan  3 09:07:29 2023.
