 Gaussian 16, Revision C.01,

 ----------------------------------------------------------------------
 #p uhf/gen stable=opt scf=(maxcycle=900,verytightlineq,xqc) integral=g
 rid=ultrafine symmetry=None density=current iop(99/18=-1) output=wfn
 ----------------------------------------------------------------------

 0002_q000_m01_k00_opt_uwb97xd_def2svpd/0002_q000_m01_k00_force_uhf_def
 2tzvpd stable-force
 ----------------------------------------------------------------------
 Symbolic Z-matrix:
 Charge =  0 Multiplicity = 1

 SCF Done:  E(UHF) =  -168.888116972     A.U. after   13 cycles
 SCF Done:  E(UHF) =  -168.895571811     a.u. after    8 cycles
 Normal termination of Gaussian 16 at Tue Jan  3 09:05:09 2023.
 Gaussian 16:  ES64L-G16RevC.01  3-Jul-2019

 ----------------------------------------------------------------------
 #p uhf/chkbasis force guess=read geom=check scf=(maxcycle=900,verytigh
 tlineq,xqc) integral=grid=ultrafine symmetry=None density=current pop=
 (cm5,hlygat,mbs,npa) output=wfx
 ----------------------------------------------------------------------

 0002_q000_m01_k00_opt_uwb97xd_def2svpd/0002_q000_m01_k00_force_uhf_def
 2tzvpd stable-force
 ----------------------------------------------------------------------
 Structure from the checkpoint file:  "0002_q000_m01_k00_force_uhf_def2tzvpd.chk"
 Charge =  0 Multiplicity = 1

                          Input orientation:
 ---------------------------------------------------------------------
 Center     Atomic      Atomic             Coordinates (Angstroms)
 Number     Number       Type             X           Y           Z
 ---------------------------------------------------------------------
      1          6           0        0.934136   -0.050610    0.053392
      2          7           0        2.230356   -0.060728    0.097153
      3          1           0        2.710430    0.144555   -0.792940
      4          8           0        2.976899   -0.286398    1.075595
      5          1           0        0.460247    0.169182   -0.899820
      6          1           0        0.383342   -0.261341    0.966961
 ---------------------------------------------------------------------

 SCF Done:  E(UHF) =  -168.895571811     A.U. after    1 cycles

 Alpha  occ. eigenvalues --  -20.53689 -15.70185 -11.28683  -1.44548  -1.14620
 Alpha  occ. eigenvalues --   -0.89110  -0.74906  -0.67026  -0.58768  -0.58724
 Alpha  occ. eigenvalues --   -0.43814  -0.34736
 Alpha virt. eigenvalues --    0.06410   0.09221   0.11705   0.11833   0.14323
 Alpha virt. eigenvalues --    0.15446   0.15456   0.17527   0.21120   0.22610
 Alpha virt. eigenvalues --    0.23174   0.27700   0.28946   0.29784   0.31223

  Beta  occ. eigenvalues --  -20.55663 -15.71579 -11.26930  -1.48197  -1.16639
  Beta  occ. eigenvalues --   -0.88175  -0.74619  -0.68042  -0.67527  -0.58619
  Beta  occ. eigenvalues --   -0.45759  -0.41118
  Beta virt. eigenvalues --    0.06543   0.09260   0.10621   0.11701   0.14409
  Beta virt. eigenvalues --    0.15131   0.15439   0.17937   0.20824   0.22668
  Beta virt. eigenvalues --    0.23146   0.29043   0.29648   0.30259   0.31402

 Mulliken charges and spin densities:
               1          2
     1  C   -0.280711   0.862047
     2  N    0.220426  -0.422196
     3  H    0.204156   0.052607
     4  O   -0.557667  -0.368904
     5  H    0.191578  -0.066325
     6  H    0.222218  -0.057229
 Sum of Mulliken charges =  -0.00000   0.00000

 Dipole moment (field-independent basis, Debye):
    X=             -2.2694    Y=              0.6970    Z=             -3.0223  Tot=              3.8432
 Quadrupole moment (field-independent basis, Debye-Ang):
   XX=            -27.1529   YY=            -19.1973   ZZ=            -18.8809
   XY=              2.3041   XZ=             -9.6131   YZ=              0.0518

 ESP charges:
               1
     1  C   -0.414944
     2  N    0.245096
     3  H    0.236291
     4  O   -0.484732
     5  H    0.173682
     6  H    0.244607
 Sum of ESP charges =  -0.00000

 Summary of Natural Population Analysis:

                                       Natural Population
                Natural  -----------------------------------------------
    Atom  No    Charge         Core      Valence    Rydberg      Total
 -----------------------------------------------------------------------
      C    1    0.30803      0.99973     1.68308    0.00917     2.69197
      N    2   -0.20257      0.99970     2.67682    0.02606     3.70257
      H    3    0.18635      0.00000     0.31181    0.00184     0.31365
      O    4   -0.43253      0.99993     3.41912    0.01348     4.43253
      H    5    0.06690      0.00000     0.43181    0.00129     0.43310
      H    6    0.07383      0.00000     0.42450    0.00167     0.42617
 =======================================================================
   * Total *    0.00000      2.99936     8.94714    0.05350    12.00000

 Normal termination of Gaussian 16 at Tue Jan  3 09:05:21 2023.
