 Gaussian 16, Revision C.01,

 ----------------------------------------------------------------------
 #p ub3lyp/gen stable=opt scf=(maxcycle=900,verytightlineq,xqc) integra
 l=grid=ultrafine symmetry=None density=current iop(99/18=-1) output=wf
 n
 ----------------------------------------------------------------------

 0002_q000_m01_k00_opt_uwb97xd_def2svpd/0002_q000_m01_k00_force_ub3lyp_
 def2svpd stable-force
 ----------------------------------------------------------------------
 Symbolic Z-matrix:
 Charge =  0 Multiplicity = 1

 SCF Done:  E(UB3LYP) =  -169.690392135     A.U. after   13 cycles
 Normal termination of Gaussian 16 at Tue Jan  3 09:04:56 2023.
 Gaussian 16:  ES64L-G16RevC.01  3-Jul-2019

 ----------------------------------------------------------------------
 #p ub3lyp/chkbasis force guess=read geom=check scf=(maxcycle=900,veryt
 ightlineq,xqc) integral=grid=ultrafine symmetry=None density=current p
 op=(cm5,hlygat,mbs,npa) output=wfx
 ----------------------------------------------------------------------

 0002_q000_m01_k00_opt_uwb97xd_def2svpd/0002_q000_m01_k00_force_ub3lyp_
 def2svpd stable-force
 ----------------------------------------------------------------------
 Structure from the checkpoint file:  "0002_q000_m01_k00_force_ub3lyp_def2svpd.chk"
 Charge =  0 Multiplicity = 1

                          Input orientation:
 ---------------------------------------------------------------------
 Center     Atomic      Atomic             Coordinates (Angstroms)
 Number     Number       Type             X           Y           Z
 ---------------------------------------------------------------------
      1          6           0        0.934136   -0.050610    0.053392
      2          7           0        2.230356   -0.060728    0.097153
      3          1           0        2.710430    0.144555   -0.792940
      4          8           0        2.976899   -0.286398    1.075595
      5          1           0        0.460247    0.169182   -0.899820
      6          1           0        0.383342   -0.261341    0.966961
 ---------------------------------------------------------------------

 SCF Done:  E(UB3LYP) =  -169.690392135     A.U. after    1 cycles

 Alpha  occ. eigenvalues --  -19.13223 -14.48667 -10.24172  -1.12063  -0.86742
 Alpha  occ. eigenvalues --   -0.67031  -0.55858  -0.49387  -0.46967  -0.43255
 Alpha  occ. eigenvalues --   -0.27287  -0.24920
 Alpha virt. eigenvalues --   -0.04833   0.00467   0.03773   0.09505   0.09928
 Alpha virt. eigenvalues --    0.11533   0.11834   0.13310   0.15938   0.17062
 Alpha virt. eigenvalues --    0.18376   0.21339   0.25193   0.25756   0.28435

  Beta  occ. eigenvalues --  -19.13223 -14.48667 -10.24172  -1.12063  -0.86742
  Beta  occ. eigenvalues --   -0.67031  -0.55858  -0.49387  -0.46967  -0.43255
  Beta  occ. eigenvalues --   -0.27287  -0.24920
  Beta virt. eigenvalues --   -0.04833   0.00467   0.03773   0.09505   0.09928
  Beta virt. eigenvalues --    0.11533   0.11834   0.13310   0.15938   0.17062
  Beta virt. eigenvalues --    0.18376   0.21339   0.25193   0.25756   0.28435

 Mulliken charges and spin densities:
               1          2
     1  C    0.813560  -0.000000
     2  N    0.285839   0.000000
     3  H   -0.115868  -0.000000
     4  O   -0.423399  -0.000000
     5  H   -0.276759   0.000000
     6  H   -0.283373  -0.000000
 Sum of Mulliken charges =  -0.00000  -0.00000

 Dipole moment (field-independent basis, Debye):
    X=             -2.1106    Y=              0.6670    Z=             -2.8923  Tot=              3.6421
 Quadrupole moment (field-independent basis, Debye-Ang):
   XX=            -26.8229   YY=            -19.1990   ZZ=            -19.3484
   XY=              2.2248   XZ=             -9.2957   YZ=              0.1597

 ESP charges:
               1
     1  C   -0.401543
     2  N    0.297889
     3  H    0.208144
     4  O   -0.484940
     5  H    0.153200
     6  H    0.227251
 Sum of ESP charges =  -0.00000

 Summary of Natural Population Analysis:

                                       Natural Population
                Natural  -----------------------------------------------
    Atom  No    Charge         Core      Valence    Rydberg      Total
 -----------------------------------------------------------------------
      C    1   -0.10084      0.99970     2.09059    0.01056     3.10084
      N    2   -0.03311      0.99969     2.51603    0.01740     3.53311
      H    3    0.18374      0.00000     0.31248    0.00378     0.31626
      O    4   -0.25813      0.99989     3.24722    0.01102     4.25813
      H    5    0.10267      0.00000     0.39542    0.00191     0.39733
      H    6    0.10567      0.00000     0.39068    0.00365     0.39433
 =======================================================================
   * Total *   -0.00000      2.99928     8.95241    0.04831    12.00000

 Normal termination of Gaussian 16 at Tue Jan  3 09:05:04 2023.
