 Gaussian 16, Revision C.01,

 ----------------------------------------------------------------------
 #p uwb97xd/gen stable=opt scf=(maxcycle=900,verytightlineq,xqc) integr
 al=grid=ultrafine symmetry=None density=current iop(99/18=-1) output=w
 fn
 ----------------------------------------------------------------------

 0002_q000_m01_k00_opt_uwb97xd_def2svpd/0002_q000_m01_k00_force_uwb97xd
 _def2svp stable-force
 ----------------------------------------------------------------------
 Symbolic Z-matrix:
 Charge =  0 Multiplicity = 1

 SCF Done:  E(UwB97XD) =  -169.609802923     A.U. after   15 cycles
 Normal termination of Gaussian 16 at Tue Jan  3 09:05:12 2023.
 Gaussian 16:  ES64L-G16RevC.01  3-Jul-2019

 ----------------------------------------------------------------------
 #p uwb97xd/chkbasis force guess=read geom=check scf=(maxcycle=900,very
 tightlineq,xqc) integral=grid=ultrafine symmetry=None density=current
 pop=(cm5,hlygat,mbs,npa) output=wfx
 ----------------------------------------------------------------------

 0002_q000_m01_k00_opt_uwb97xd_def2svpd/0002_q000_m01_k00_force_uwb97xd
 _def2svp stable-force
 ----------------------------------------------------------------------
 Structure from the checkpoint file:  "0002_q000_m01_k00_force_uwb97xd_def2svp.chk"
 Charge =  0 Multiplicity = 1

                          Input orientation:
 ---------------------------------------------------------------------
 Center     Atomic      Atomic             Coordinates (Angstroms)
 Number     Number       Type             X           Y           Z
 ---------------------------------------------------------------------
      1          6           0        0.934136   -0.050610    0.053392
      2          7           0        2.230356   -0.060728    0.097153
      3          1           0        2.710430    0.144555   -0.792940
      4          8           0        2.976899   -0.286398    1.075595
      5          1           0        0.460247    0.169182   -0.899820
      6          1           0        0.383342   -0.261341    0.966961
 ---------------------------------------------------------------------

 SCF Done:  E(UwB97XD) =  -169.609802923     A.U. after    1 cycles

 Alpha  occ. eigenvalues --  -19.22904 -14.59556 -10.34077  -1.20857  -0.95462
 Alpha  occ. eigenvalues --   -0.75431  -0.63746  -0.56658  -0.54814  -0.50374
 Alpha  occ. eigenvalues --   -0.33803  -0.30900
 Alpha virt. eigenvalues --    0.04511   0.11901   0.17346   0.20989   0.31158
 Alpha virt. eigenvalues --    0.35721   0.49805   0.56586   0.58122   0.64128
 Alpha virt. eigenvalues --    0.69225   0.72564   0.73955   0.82738   0.84865

  Beta  occ. eigenvalues --  -19.22904 -14.59556 -10.34077  -1.20857  -0.95462
  Beta  occ. eigenvalues --   -0.75431  -0.63746  -0.56658  -0.54814  -0.50374
  Beta  occ. eigenvalues --   -0.33803  -0.30900
  Beta virt. eigenvalues --    0.04511   0.11901   0.17346   0.20989   0.31158
  Beta virt. eigenvalues --    0.35721   0.49805   0.56586   0.58122   0.64128
  Beta virt. eigenvalues --    0.69225   0.72564   0.73955   0.82738   0.84865

 Mulliken charges and spin densities:
               1          2
     1  C   -0.082723   0.000000
     2  N    0.186585   0.000000
     3  H    0.148354   0.000000
     4  O   -0.400170   0.000000
     5  H    0.064099   0.000000
     6  H    0.083856   0.000000
 Sum of Mulliken charges =  -0.00000   0.00000

 Dipole moment (field-independent basis, Debye):
    X=             -1.8089    Y=              0.6817    Z=             -2.9558  Tot=              3.5318
 Quadrupole moment (field-independent basis, Debye-Ang):
   XX=            -25.0937   YY=            -18.5991   ZZ=            -18.5770
   XY=              2.2111   XZ=             -9.2863   YZ=              0.1207

 ESP charges:
               1
     1  C   -0.516650
     2  N    0.359871
     3  H    0.209751
     4  O   -0.484954
     5  H    0.188341
     6  H    0.243641
 Sum of ESP charges =  -0.00000

 Summary of Natural Population Analysis:

                                       Natural Population
                Natural  -----------------------------------------------
    Atom  No    Charge         Core      Valence    Rydberg      Total
 -----------------------------------------------------------------------
      C    1   -0.11096      0.99965     2.09964    0.01167     3.11096
      N    2   -0.02172      0.99962     2.50822    0.01388     3.52172
      H    3    0.18116      0.00000     0.31527    0.00357     0.31884
      O    4   -0.24980      0.99990     3.24132    0.00857     4.24980
      H    5    0.09744      0.00000     0.40128    0.00128     0.40256
      H    6    0.10387      0.00000     0.39434    0.00179     0.39613
 =======================================================================
   * Total *    0.00000      2.99917     8.96007    0.04076    12.00000

 Normal termination of Gaussian 16 at Tue Jan  3 09:05:19 2023.
