 Gaussian 16, Revision C.01,

 ----------------------------------------------------------------------
 #p ub3lyp/gen stable=opt scf=(maxcycle=900,verytightlineq,xqc) integra
 l=grid=ultrafine symmetry=None density=current iop(99/18=-1) output=wf
 n
 ----------------------------------------------------------------------

 0002_q000_m01_k00_opt_uwb97xd_def2svpd/0002_q000_m01_k00_force_ub3lyp_
 def2svp stable-force
 ----------------------------------------------------------------------
 Symbolic Z-matrix:
 Charge =  0 Multiplicity = 1

 SCF Done:  E(UB3LYP) =  -169.669818091     A.U. after   13 cycles
 Normal termination of Gaussian 16 at Tue Jan  3 09:04:31 2023.
 Gaussian 16:  ES64L-G16RevC.01  3-Jul-2019

 ----------------------------------------------------------------------
 #p ub3lyp/chkbasis force guess=read geom=check scf=(maxcycle=900,veryt
 ightlineq,xqc) integral=grid=ultrafine symmetry=None density=current p
 op=(cm5,hlygat,mbs,npa) output=wfx
 ----------------------------------------------------------------------

 0002_q000_m01_k00_opt_uwb97xd_def2svpd/0002_q000_m01_k00_force_ub3lyp_
 def2svp stable-force
 ----------------------------------------------------------------------
 Structure from the checkpoint file:  "0002_q000_m01_k00_force_ub3lyp_def2svp.chk"
 Charge =  0 Multiplicity = 1

                          Input orientation:
 ---------------------------------------------------------------------
 Center     Atomic      Atomic             Coordinates (Angstroms)
 Number     Number       Type             X           Y           Z
 ---------------------------------------------------------------------
      1          6           0        0.934136   -0.050610    0.053392
      2          7           0        2.230356   -0.060728    0.097153
      3          1           0        2.710430    0.144555   -0.792940
      4          8           0        2.976899   -0.286398    1.075595
      5          1           0        0.460247    0.169182   -0.899820
      6          1           0        0.383342   -0.261341    0.966961
 ---------------------------------------------------------------------

 SCF Done:  E(UB3LYP) =  -169.669818091     A.U. after    1 cycles

 Alpha  occ. eigenvalues --  -19.10995 -14.47470 -10.22878  -1.10665  -0.85588
 Alpha  occ. eigenvalues --   -0.66026  -0.54719  -0.47879  -0.45845  -0.42013
 Alpha  occ. eigenvalues --   -0.25495  -0.23284
 Alpha virt. eigenvalues --   -0.02958   0.03382   0.08938   0.12556   0.22925
 Alpha virt. eigenvalues --    0.27271   0.41305   0.47508   0.49251   0.55261
 Alpha virt. eigenvalues --    0.60324   0.63569   0.64835   0.73528   0.76089

  Beta  occ. eigenvalues --  -19.10995 -14.47470 -10.22878  -1.10665  -0.85588
  Beta  occ. eigenvalues --   -0.66026  -0.54719  -0.47879  -0.45845  -0.42013
  Beta  occ. eigenvalues --   -0.25495  -0.23284
  Beta virt. eigenvalues --   -0.02958   0.03382   0.08938   0.12556   0.22925
  Beta virt. eigenvalues --    0.27271   0.41305   0.47508   0.49251   0.55261
  Beta virt. eigenvalues --    0.60324   0.63569   0.64835   0.73528   0.76089

 Mulliken charges and spin densities:
               1          2
     1  C   -0.039513  -0.000000
     2  N    0.204984   0.000000
     3  H    0.124643   0.000000
     4  O   -0.377828  -0.000000
     5  H    0.034828  -0.000000
     6  H    0.052885  -0.000000
 Sum of Mulliken charges =  -0.00000  -0.00000

 Dipole moment (field-independent basis, Debye):
    X=             -1.6602    Y=              0.6506    Z=             -2.8213  Tot=              3.3376
 Quadrupole moment (field-independent basis, Debye-Ang):
   XX=            -24.6516   YY=            -18.5750   ZZ=            -18.6472
   XY=              2.1111   XZ=             -8.8775   YZ=              0.1379

 ESP charges:
               1
     1  C   -0.498264
     2  N    0.367351
     3  H    0.195125
     4  O   -0.468837
     5  H    0.175613
     6  H    0.229012
 Sum of ESP charges =  -0.00000

 Summary of Natural Population Analysis:

                                       Natural Population
                Natural  -----------------------------------------------
    Atom  No    Charge         Core      Valence    Rydberg      Total
 -----------------------------------------------------------------------
      C    1   -0.10917      0.99965     2.09787    0.01166     3.10917
      N    2   -0.02369      0.99961     2.51046    0.01362     3.52369
      H    3    0.17628      0.00000     0.31965    0.00408     0.32372
      O    4   -0.23971      0.99990     3.23156    0.00825     4.23971
      H    5    0.09509      0.00000     0.40329    0.00161     0.40491
      H    6    0.10120      0.00000     0.39667    0.00213     0.39880
 =======================================================================
   * Total *    0.00000      2.99916     8.95950    0.04135    12.00000

 Normal termination of Gaussian 16 at Tue Jan  3 09:04:37 2023.
