 Gaussian 16, Revision C.01,

 ----------------------------------------------------------------------
 #p uwb97xd/gen stable=opt scf=(maxcycle=900,verytightlineq,xqc) integr
 al=grid=ultrafine symmetry=None density=current iop(99/18=-1) output=w
 fn
 ----------------------------------------------------------------------

 0002_q000_m01_k00_opt_uwb97xd_def2svpd/0002_q000_m01_k00_force_uwb97xd
 _def2svpd stable-force
 ----------------------------------------------------------------------
 Symbolic Z-matrix:
 Charge =  0 Multiplicity = 1

 SCF Done:  E(UwB97XD) =  -169.627833578     A.U. after   16 cycles
 Normal termination of Gaussian 16 at Tue Jan  3 09:05:44 2023.
 Gaussian 16:  ES64L-G16RevC.01  3-Jul-2019

 ----------------------------------------------------------------------
 #p uwb97xd/chkbasis force guess=read geom=check scf=(maxcycle=900,very
 tightlineq,xqc) integral=grid=ultrafine symmetry=None density=current
 pop=(cm5,hlygat,mbs,npa) output=wfx
 ----------------------------------------------------------------------

 0002_q000_m01_k00_opt_uwb97xd_def2svpd/0002_q000_m01_k00_force_uwb97xd
 _def2svpd stable-force
 ----------------------------------------------------------------------
 Structure from the checkpoint file:  "0002_q000_m01_k00_force_uwb97xd_def2svpd.chk"
 Charge =  0 Multiplicity = 1

                          Input orientation:
 ---------------------------------------------------------------------
 Center     Atomic      Atomic             Coordinates (Angstroms)
 Number     Number       Type             X           Y           Z
 ---------------------------------------------------------------------
      1          6           0        0.934136   -0.050610    0.053392
      2          7           0        2.230356   -0.060728    0.097153
      3          1           0        2.710430    0.144555   -0.792940
      4          8           0        2.976899   -0.286398    1.075595
      5          1           0        0.460247    0.169182   -0.899820
      6          1           0        0.383342   -0.261341    0.966961
 ---------------------------------------------------------------------

 SCF Done:  E(UwB97XD) =  -169.627833578     A.U. after    1 cycles

 Alpha  occ. eigenvalues --  -19.24867 -14.60582 -10.35261  -1.21957  -0.96358
 Alpha  occ. eigenvalues --   -0.76221  -0.64684  -0.57924  -0.55674  -0.51416
 Alpha  occ. eigenvalues --   -0.35280  -0.32304
 Alpha virt. eigenvalues --    0.02894   0.07947   0.10991   0.17173   0.17894
 Alpha virt. eigenvalues --    0.19026   0.19167   0.20950   0.23647   0.24078
 Alpha virt. eigenvalues --    0.25744   0.29611   0.33126   0.33619   0.35553

  Beta  occ. eigenvalues --  -19.24867 -14.60582 -10.35261  -1.21957  -0.96358
  Beta  occ. eigenvalues --   -0.76221  -0.64684  -0.57924  -0.55674  -0.51416
  Beta  occ. eigenvalues --   -0.35280  -0.32304
  Beta virt. eigenvalues --    0.02894   0.07947   0.10991   0.17173   0.17894
  Beta virt. eigenvalues --    0.19026   0.19167   0.20950   0.23647   0.24078
  Beta virt. eigenvalues --    0.25744   0.29611   0.33126   0.33619   0.35553

 Mulliken charges and spin densities:
               1          2
     1  C    0.561778   0.000000
     2  N    0.204613   0.000000
     3  H   -0.036967   0.000000
     4  O   -0.453203   0.000000
     5  H   -0.140806   0.000000
     6  H   -0.135415   0.000000
 Sum of Mulliken charges =  -0.00000   0.00000

 Dipole moment (field-independent basis, Debye):
    X=             -2.2170    Y=              0.6894    Z=             -2.9894  Tot=              3.7851
 Quadrupole moment (field-independent basis, Debye-Ang):
   XX=            -26.9416   YY=            -19.1177   ZZ=            -19.1278
   XY=              2.2877   XZ=             -9.5508   YZ=              0.1299

 ESP charges:
               1
     1  C   -0.400925
     2  N    0.259057
     3  H    0.229421
     4  O   -0.485509
     5  H    0.162098
     6  H    0.235858
 Sum of ESP charges =   0.00000

 Summary of Natural Population Analysis:

                                       Natural Population
                Natural  -----------------------------------------------
    Atom  No    Charge         Core      Valence    Rydberg      Total
 -----------------------------------------------------------------------
      C    1   -0.10015      0.99970     2.09020    0.01025     3.10015
      N    2   -0.03023      0.99970     2.51275    0.01778     3.53023
      H    3    0.18750      0.00000     0.30888    0.00363     0.31250
      O    4   -0.26776      0.99989     3.25637    0.01149     4.26776
      H    5    0.10374      0.00000     0.39465    0.00162     0.39626
      H    6    0.10690      0.00000     0.38938    0.00372     0.39310
 =======================================================================
   * Total *    0.00000      2.99929     8.95223    0.04848    12.00000

 Optimization completed.
    -- Stationary point found.
 Normal termination of Gaussian 16 at Tue Jan  3 09:05:52 2023.
