 Gaussian 16, Revision C.01,

 ----------------------------------------------------------------------
 #p uhf/gen stable=opt scf=(maxcycle=900,verytightlineq,xqc) integral=g
 rid=ultrafine symmetry=None density=current iop(99/18=-1) output=wfn
 ----------------------------------------------------------------------

 0002_q000_m01_k00_opt_uwb97xd_def2svpd/0002_q000_m01_k00_force_uhf_def
 2svp stable-force
 ----------------------------------------------------------------------
 Symbolic Z-matrix:
 Charge =  0 Multiplicity = 1

 SCF Done:  E(UHF) =  -168.679963961     A.U. after   13 cycles
 SCF Done:  E(UHF) =  -168.689800848     a.u. after    9 cycles
 Normal termination of Gaussian 16 at Tue Jan  3 09:04:34 2023.
 Gaussian 16:  ES64L-G16RevC.01  3-Jul-2019

 ----------------------------------------------------------------------
 #p uhf/chkbasis force guess=read geom=check scf=(maxcycle=900,verytigh
 tlineq,xqc) integral=grid=ultrafine symmetry=None density=current pop=
 (cm5,hlygat,mbs,npa) output=wfx
 ----------------------------------------------------------------------

 0002_q000_m01_k00_opt_uwb97xd_def2svpd/0002_q000_m01_k00_force_uhf_def
 2svp stable-force
 ----------------------------------------------------------------------
 Structure from the checkpoint file:  "0002_q000_m01_k00_force_uhf_def2svp.chk"
 Charge =  0 Multiplicity = 1

                          Input orientation:
 ---------------------------------------------------------------------
 Center     Atomic      Atomic             Coordinates (Angstroms)
 Number     Number       Type             X           Y           Z
 ---------------------------------------------------------------------
      1          6           0        0.934136   -0.050610    0.053392
      2          7           0        2.230356   -0.060728    0.097153
      3          1           0        2.710430    0.144555   -0.792940
      4          8           0        2.976899   -0.286398    1.075595
      5          1           0        0.460247    0.169182   -0.899820
      6          1           0        0.383342   -0.261341    0.966961
 ---------------------------------------------------------------------

 SCF Done:  E(UHF) =  -168.689800848     A.U. after    1 cycles

 Alpha  occ. eigenvalues --  -20.52715 -15.69376 -11.28613  -1.42793  -1.13023
 Alpha  occ. eigenvalues --   -0.88063  -0.74387  -0.66331  -0.58778  -0.58355
 Alpha  occ. eigenvalues --   -0.43665  -0.33811
 Alpha virt. eigenvalues --    0.16390   0.16564   0.20926   0.25102   0.37438
 Alpha virt. eigenvalues --    0.48595   0.58592   0.64797   0.71966   0.78849
 Alpha virt. eigenvalues --    0.83383   0.87156   0.91920   0.99373   1.02473

  Beta  occ. eigenvalues --  -20.54968 -15.70687 -11.26653  -1.46496  -1.15011
  Beta  occ. eigenvalues --   -0.87130  -0.73888  -0.67519  -0.67454  -0.58188
  Beta  occ. eigenvalues --   -0.45774  -0.41029
  Beta virt. eigenvalues --    0.15191   0.16347   0.21892   0.25357   0.38369
  Beta virt. eigenvalues --    0.46933   0.60265   0.71611   0.74338   0.80152
  Beta virt. eigenvalues --    0.84945   0.88191   0.91873   0.98404   0.99085

 Mulliken charges and spin densities:
               1          2
     1  C   -0.007089   0.905022
     2  N    0.115037  -0.360042
     3  H    0.162066   0.025387
     4  O   -0.429391  -0.430011
     5  H    0.070030  -0.071151
     6  H    0.089347  -0.069204
 Sum of Mulliken charges =  -0.00000   0.00000

 Dipole moment (field-independent basis, Debye):
    X=             -2.0209    Y=              0.6997    Z=             -3.0342  Tot=              3.7122
 Quadrupole moment (field-independent basis, Debye-Ang):
   XX=            -26.1506   YY=            -18.8122   ZZ=            -18.7165
   XY=              2.2772   XZ=             -9.5379   YZ=              0.1061

 ESP charges:
               1
     1  C   -0.482559
     2  N    0.334635
     3  H    0.214870
     4  O   -0.495886
     5  H    0.186294
     6  H    0.242645
 Sum of ESP charges =   0.00000

 Summary of Natural Population Analysis:

                                       Natural Population
                Natural  -----------------------------------------------
    Atom  No    Charge         Core      Valence    Rydberg      Total
 -----------------------------------------------------------------------
      C    1    0.32386      0.99968     1.66481    0.01165     2.67614
      N    2   -0.20354      0.99964     2.68856    0.01534     3.70354
      H    3    0.19323      0.00000     0.30351    0.00327     0.30677
      O    4   -0.45572      0.99990     3.44589    0.00993     4.45572
      H    5    0.06804      0.00000     0.43083    0.00114     0.43196
      H    6    0.07413      0.00000     0.42429    0.00158     0.42587
 =======================================================================
   * Total *   -0.00000      2.99921     8.95788    0.04291    12.00000

 Normal termination of Gaussian 16 at Tue Jan  3 09:04:39 2023.
