 Gaussian 16, Revision C.01,

 ----------------------------------------------------------------------
 #p ub3lyp/gen stable=opt scf=(maxcycle=900,verytightlineq,xqc) integra
 l=grid=ultrafine symmetry=None density=current iop(99/18=-1) output=wf
 n
 ----------------------------------------------------------------------

 0002_q000_m01_k00_opt_uwb97xd_def2svpd/0002_q000_m01_k00_force_ub3lyp_
 def2tzvpd stable-force
 ----------------------------------------------------------------------
 Symbolic Z-matrix:
 Charge =  0 Multiplicity = 1

 SCF Done:  E(UB3LYP) =  -169.877642737     A.U. after   11 cycles
 Normal termination of Gaussian 16 at Tue Jan  3 09:06:03 2023.
 Gaussian 16:  ES64L-G16RevC.01  3-Jul-2019

 ----------------------------------------------------------------------
 #p ub3lyp/chkbasis force guess=read geom=check scf=(maxcycle=900,veryt
 ightlineq,xqc) integral=grid=ultrafine symmetry=None density=current p
 op=(cm5,hlygat,mbs,npa) output=wfx
 ----------------------------------------------------------------------

 0002_q000_m01_k00_opt_uwb97xd_def2svpd/0002_q000_m01_k00_force_ub3lyp_
 def2tzvpd stable-force
 ----------------------------------------------------------------------
 Structure from the checkpoint file:  "0002_q000_m01_k00_force_ub3lyp_def2tzvpd.chk"
 Charge =  0 Multiplicity = 1

                          Input orientation:
 ---------------------------------------------------------------------
 Center     Atomic      Atomic             Coordinates (Angstroms)
 Number     Number       Type             X           Y           Z
 ---------------------------------------------------------------------
      1          6           0        0.934136   -0.050610    0.053392
      2          7           0        2.230356   -0.060728    0.097153
      3          1           0        2.710430    0.144555   -0.792940
      4          8           0        2.976899   -0.286398    1.075595
      5          1           0        0.460247    0.169182   -0.899820
      6          1           0        0.383342   -0.261341    0.966961
 ---------------------------------------------------------------------

 SCF Done:  E(UB3LYP) =  -169.877642737     A.U. after    1 cycles

 Alpha  occ. eigenvalues --  -19.11923 -14.47094 -10.22486  -1.12790  -0.87356
 Alpha  occ. eigenvalues --   -0.67256  -0.55965  -0.49569  -0.46669  -0.43205
 Alpha  occ. eigenvalues --   -0.27181  -0.24789
 Alpha virt. eigenvalues --   -0.04772  -0.00864   0.02123   0.05954   0.07481
 Alpha virt. eigenvalues --    0.08014   0.08730   0.10090   0.12814   0.14518
 Alpha virt. eigenvalues --    0.14752   0.18017   0.20093   0.21012   0.21333

  Beta  occ. eigenvalues --  -19.11923 -14.47094 -10.22486  -1.12790  -0.87356
  Beta  occ. eigenvalues --   -0.67256  -0.55965  -0.49569  -0.46669  -0.43205
  Beta  occ. eigenvalues --   -0.27181  -0.24789
  Beta virt. eigenvalues --   -0.04772  -0.00864   0.02123   0.05954   0.07481
  Beta virt. eigenvalues --    0.08014   0.08730   0.10090   0.12814   0.14518
  Beta virt. eigenvalues --    0.14752   0.18017   0.20093   0.21012   0.21333

 Mulliken charges and spin densities:
               1          2
     1  C   -0.399353   0.000000
     2  N    0.223313   0.000000
     3  H    0.203191  -0.000000
     4  O   -0.548119  -0.000000
     5  H    0.243032  -0.000000
     6  H    0.277937  -0.000000
 Sum of Mulliken charges =  -0.00000  -0.00000

 Dipole moment (field-independent basis, Debye):
    X=             -2.0438    Y=              0.6511    Z=             -2.8234  Tot=              3.5458
 Quadrupole moment (field-independent basis, Debye-Ang):
   XX=            -26.4386   YY=            -19.3137   ZZ=            -19.1783
   XY=              2.1745   XZ=             -9.0889   YZ=              0.0874

 ESP charges:
               1
     1  C   -0.453777
     2  N    0.297176
     3  H    0.209775
     4  O   -0.470666
     5  H    0.171401
     6  H    0.246091
 Sum of ESP charges =  -0.00000

 Summary of Natural Population Analysis:

                                       Natural Population
                Natural  -----------------------------------------------
    Atom  No    Charge         Core      Valence    Rydberg      Total
 -----------------------------------------------------------------------
      C    1   -0.11258      0.99972     2.10199    0.01087     3.11258
      N    2   -0.01266      0.99970     2.49154    0.02143     3.51266
      H    3    0.17040      0.00000     0.32659    0.00301     0.32960
      O    4   -0.24300      0.99993     3.23167    0.01139     4.24300
      H    5    0.09577      0.00000     0.40205    0.00218     0.40423
      H    6    0.10208      0.00000     0.39559    0.00233     0.39792
 =======================================================================
   * Total *   -0.00000      2.99935     8.94943    0.05121    12.00000

 Normal termination of Gaussian 16 at Tue Jan  3 09:06:18 2023.
