 Gaussian 16, Revision C.01,

 ----------------------------------------------------------------------
 #p uwb97xd/gen stable=opt scf=(maxcycle=900,verytightlineq,xqc) integr
 al=grid=ultrafine symmetry=None density=current iop(99/18=-1) output=w
 fn
 ----------------------------------------------------------------------

 0002_q000_m01_k00_opt_uwb97xd_def2svpd/0002_q000_m01_k00_force_uwb97xd
 _def2qzvpd stable-force
 ----------------------------------------------------------------------
 Symbolic Z-matrix:
 Charge =  0 Multiplicity = 1

 SCF Done:  E(UwB97XD) =  -169.823880811     A.U. after   12 cycles
 Normal termination of Gaussian 16 at Tue Jan  3 09:24:22 2023.
 Gaussian 16:  ES64L-G16RevC.01  3-Jul-2019

 ----------------------------------------------------------------------
 #p uwb97xd/chkbasis force guess=read geom=check scf=(maxcycle=900,very
 tightlineq,xqc) integral=grid=ultrafine symmetry=None density=current
 pop=(cm5,hlygat,mbs,npa) output=wfx
 ----------------------------------------------------------------------

 0002_q000_m01_k00_opt_uwb97xd_def2svpd/0002_q000_m01_k00_force_uwb97xd
 _def2qzvpd stable-force
 ----------------------------------------------------------------------
 Structure from the checkpoint file:  "0002_q000_m01_k00_force_uwb97xd_def2qzvpd.chk"
 Charge =  0 Multiplicity = 1

                          Input orientation:
 ---------------------------------------------------------------------
 Center     Atomic      Atomic             Coordinates (Angstroms)
 Number     Number       Type             X           Y           Z
 ---------------------------------------------------------------------
      1          6           0        0.934136   -0.050610    0.053392
      2          7           0        2.230356   -0.060728    0.097153
      3          1           0        2.710430    0.144555   -0.792940
      4          8           0        2.976899   -0.286398    1.075595
      5          1           0        0.460247    0.169182   -0.899820
      6          1           0        0.383342   -0.261341    0.966961
 ---------------------------------------------------------------------

 SCF Done:  E(UwB97XD) =  -169.823880811     A.U. after    1 cycles

 Alpha  occ. eigenvalues --  -19.23524 -14.59202 -10.33693  -1.22529  -0.96846
 Alpha  occ. eigenvalues --   -0.76325  -0.64636  -0.57954  -0.55240  -0.51212
 Alpha  occ. eigenvalues --   -0.35058  -0.32061
 Alpha virt. eigenvalues --    0.02869   0.04805   0.07584   0.09540   0.11881
 Alpha virt. eigenvalues --    0.12935   0.13807   0.15685   0.17190   0.19364
 Alpha virt. eigenvalues --    0.19495   0.22457   0.22517   0.24918   0.25710

  Beta  occ. eigenvalues --  -19.23524 -14.59202 -10.33693  -1.22529  -0.96846
  Beta  occ. eigenvalues --   -0.76325  -0.64636  -0.57954  -0.55240  -0.51212
  Beta  occ. eigenvalues --   -0.35058  -0.32061
  Beta virt. eigenvalues --    0.02869   0.04805   0.07584   0.09540   0.11881
  Beta virt. eigenvalues --    0.12935   0.13807   0.15685   0.17190   0.19364
  Beta virt. eigenvalues --    0.19495   0.22457   0.22517   0.24918   0.25710

 Mulliken charges and spin densities:
               1          2
     1  C   -0.034851  -0.000000
     2  N    0.086656   0.000000
     3  H    0.222083  -0.000000
     4  O   -0.575465  -0.000000
     5  H    0.220335   0.000000
     6  H    0.081242  -0.000000
 Sum of Mulliken charges =   0.00000  -0.00000

 Dipole moment (field-independent basis, Debye):
    X=             -2.1051    Y=              0.6701    Z=             -2.9055  Tot=              3.6500
 Quadrupole moment (field-independent basis, Debye-Ang):
   XX=            -26.3637   YY=            -19.1499   ZZ=            -18.9268
   XY=              2.2271   XZ=             -9.3065   YZ=              0.0696

 ESP charges:
               1
     1  C   -0.460531
     2  N    0.276679
     3  H    0.224939
     4  O   -0.473350
     5  H    0.179158
     6  H    0.253105
 Sum of ESP charges =  -0.00000

 Summary of Natural Population Analysis:

                                       Natural Population
                Natural  -----------------------------------------------
    Atom  No    Charge         Core      Valence    Rydberg      Total
 -----------------------------------------------------------------------
      C    1   -0.11645      0.99972     2.10448    0.01226     3.11645
      N    2   -0.01746      0.99973     2.49488    0.02285     3.51746
      H    3    0.18033      0.00000     0.31685    0.00282     0.31967
      O    4   -0.25412      0.99993     3.24349    0.01070     4.25412
      H    5    0.10027      0.00000     0.39858    0.00115     0.39973
      H    6    0.10743      0.00000     0.39113    0.00144     0.39257
 =======================================================================
   * Total *    0.00000      2.99937     8.94940    0.05122    12.00000

 Normal termination of Gaussian 16 at Tue Jan  3 09:27:55 2023.
