 Gaussian 16, Revision C.01,

 ----------------------------------------------------------------------
 #p ub3lyp/gen stable=opt scf=(maxcycle=900,verytightlineq,xqc) integra
 l=grid=ultrafine symmetry=None density=current iop(99/18=-1) output=wf
 n
 ----------------------------------------------------------------------

 0002_q000_m01_k00_opt_uwb97xd_def2svpd/0002_q000_m01_k00_force_ub3lyp_
 def2qzvpd stable-force
 ----------------------------------------------------------------------
 Symbolic Z-matrix:
 Charge =  0 Multiplicity = 1

 SCF Done:  E(UB3LYP) =  -169.888561926     A.U. after   11 cycles
 Normal termination of Gaussian 16 at Tue Jan  3 09:19:28 2023.
 Gaussian 16:  ES64L-G16RevC.01  3-Jul-2019

 ----------------------------------------------------------------------
 #p ub3lyp/chkbasis force guess=read geom=check scf=(maxcycle=900,veryt
 ightlineq,xqc) integral=grid=ultrafine symmetry=None density=current p
 op=(cm5,hlygat,mbs,npa) output=wfx
 ----------------------------------------------------------------------

 0002_q000_m01_k00_opt_uwb97xd_def2svpd/0002_q000_m01_k00_force_ub3lyp_
 def2qzvpd stable-force
 ----------------------------------------------------------------------
 Structure from the checkpoint file:  "0002_q000_m01_k00_force_ub3lyp_def2qzvpd.chk"
 Charge =  0 Multiplicity = 1

                          Input orientation:
 ---------------------------------------------------------------------
 Center     Atomic      Atomic             Coordinates (Angstroms)
 Number     Number       Type             X           Y           Z
 ---------------------------------------------------------------------
      1          6           0        0.934136   -0.050610    0.053392
      2          7           0        2.230356   -0.060728    0.097153
      3          1           0        2.710430    0.144555   -0.792940
      4          8           0        2.976899   -0.286398    1.075595
      5          1           0        0.460247    0.169182   -0.899820
      6          1           0        0.383342   -0.261341    0.966961
 ---------------------------------------------------------------------

 SCF Done:  E(UB3LYP) =  -169.888561926     A.U. after    1 cycles

 Alpha  occ. eigenvalues --  -19.11936 -14.47330 -10.22695  -1.12782  -0.87363
 Alpha  occ. eigenvalues --   -0.67260  -0.55975  -0.49590  -0.46682  -0.43216
 Alpha  occ. eigenvalues --   -0.27215  -0.24820
 Alpha virt. eigenvalues --   -0.04853  -0.01332   0.01479   0.04678   0.06422
 Alpha virt. eigenvalues --    0.06947   0.07986   0.09158   0.10981   0.13039
 Alpha virt. eigenvalues --    0.13244   0.15296   0.16628   0.18783   0.19044

  Beta  occ. eigenvalues --  -19.11936 -14.47330 -10.22695  -1.12782  -0.87363
  Beta  occ. eigenvalues --   -0.67260  -0.55975  -0.49590  -0.46682  -0.43216
  Beta  occ. eigenvalues --   -0.27215  -0.24820
  Beta virt. eigenvalues --   -0.04853  -0.01332   0.01479   0.04678   0.06422
  Beta virt. eigenvalues --    0.06947   0.07986   0.09158   0.10981   0.13039
  Beta virt. eigenvalues --    0.13244   0.15296   0.16628   0.18783   0.19044

 Mulliken charges and spin densities:
               1          2
     1  C   -0.101397  -0.000000
     2  N    0.085498   0.000000
     3  H    0.230142   0.000000
     4  O   -0.466569   0.000000
     5  H    0.132535  -0.000000
     6  H    0.119790   0.000000
 Sum of Mulliken charges =  -0.00000  -0.00000

 Dipole moment (field-independent basis, Debye):
    X=             -2.0426    Y=              0.6500    Z=             -2.8185  Tot=              3.5410
 Quadrupole moment (field-independent basis, Debye-Ang):
   XX=            -26.4238   YY=            -19.3107   ZZ=            -19.1894
   XY=              2.1734   XZ=             -9.0843   YZ=              0.0907

 ESP charges:
               1
     1  C   -0.458601
     2  N    0.305148
     3  H    0.206884
     4  O   -0.472533
     5  H    0.172104
     6  H    0.246998
 Sum of ESP charges =  -0.00000

 Summary of Natural Population Analysis:

                                       Natural Population
                Natural  -----------------------------------------------
    Atom  No    Charge         Core      Valence    Rydberg      Total
 -----------------------------------------------------------------------
      C    1   -0.11240      0.99971     2.09994    0.01275     3.11240
      N    2   -0.02148      0.99972     2.49918    0.02258     3.52148
      H    3    0.17621      0.00000     0.32026    0.00353     0.32379
      O    4   -0.24649      0.99993     3.23602    0.01054     4.24649
      H    5    0.09878      0.00000     0.39988    0.00133     0.40122
      H    6    0.10538      0.00000     0.39301    0.00161     0.39462
 =======================================================================
   * Total *    0.00000      2.99936     8.94829    0.05235    12.00000

 Normal termination of Gaussian 16 at Tue Jan  3 09:21:44 2023.
