 Gaussian 16, Revision C.01,

 ----------------------------------------------------------------------
 #p uwb97xd/gen stable=opt scf=(maxcycle=900,verytightlineq,xqc) integr
 al=grid=ultrafine symmetry=None density=current iop(99/18=-1) output=w
 fn
 ----------------------------------------------------------------------

 0002_q000_m01_k00_opt_uwb97xd_def2svpd/0002_q000_m01_k00_force_uwb97xd
 _def2qzvp stable-force
 ----------------------------------------------------------------------
 Symbolic Z-matrix:
 Charge =  0 Multiplicity = 1

 SCF Done:  E(UwB97XD) =  -169.823367599     A.U. after   14 cycles
 Normal termination of Gaussian 16 at Tue Jan  3 09:19:40 2023.
 Gaussian 16:  ES64L-G16RevC.01  3-Jul-2019

 ----------------------------------------------------------------------
 #p uwb97xd/chkbasis force guess=read geom=check scf=(maxcycle=900,very
 tightlineq,xqc) integral=grid=ultrafine symmetry=None density=current
 pop=(cm5,hlygat,mbs,npa) output=wfx
 ----------------------------------------------------------------------

 0002_q000_m01_k00_opt_uwb97xd_def2svpd/0002_q000_m01_k00_force_uwb97xd
 _def2qzvp stable-force
 ----------------------------------------------------------------------
 Structure from the checkpoint file:  "0002_q000_m01_k00_force_uwb97xd_def2qzvp.chk"
 Charge =  0 Multiplicity = 1

                          Input orientation:
 ---------------------------------------------------------------------
 Center     Atomic      Atomic             Coordinates (Angstroms)
 Number     Number       Type             X           Y           Z
 ---------------------------------------------------------------------
      1          6           0        0.934136   -0.050610    0.053392
      2          7           0        2.230356   -0.060728    0.097153
      3          1           0        2.710430    0.144555   -0.792940
      4          8           0        2.976899   -0.286398    1.075595
      5          1           0        0.460247    0.169182   -0.899820
      6          1           0        0.383342   -0.261341    0.966961
 ---------------------------------------------------------------------

 SCF Done:  E(UwB97XD) =  -169.823367599     A.U. after    1 cycles

 Alpha  occ. eigenvalues --  -19.23425 -14.59153 -10.33618  -1.22459  -0.96787
 Alpha  occ. eigenvalues --   -0.76278  -0.64583  -0.57880  -0.55185  -0.51153
 Alpha  occ. eigenvalues --   -0.34982  -0.31982
 Alpha virt. eigenvalues --    0.03038   0.07539   0.11416   0.15203   0.18815
 Alpha virt. eigenvalues --    0.20333   0.20651   0.25621   0.30390   0.32217
 Alpha virt. eigenvalues --    0.32369   0.37026   0.38351   0.40058   0.41731

  Beta  occ. eigenvalues --  -19.23425 -14.59153 -10.33618  -1.22459  -0.96787
  Beta  occ. eigenvalues --   -0.76278  -0.64583  -0.57880  -0.55185  -0.51153
  Beta  occ. eigenvalues --   -0.34982  -0.31982
  Beta virt. eigenvalues --    0.03038   0.07539   0.11416   0.15203   0.18815
  Beta virt. eigenvalues --    0.20333   0.20651   0.25621   0.30390   0.32217
  Beta virt. eigenvalues --    0.32369   0.37026   0.38351   0.40058   0.41731

 Mulliken charges and spin densities:
               1          2
     1  C   -0.086368  -0.000000
     2  N    0.094466   0.000000
     3  H    0.206639  -0.000000
     4  O   -0.417137  -0.000000
     5  H    0.089029   0.000000
     6  H    0.113370   0.000000
 Sum of Mulliken charges =   0.00000   0.00000

 Dipole moment (field-independent basis, Debye):
    X=             -2.0793    Y=              0.6764    Z=             -2.9331  Tot=              3.6584
 Quadrupole moment (field-independent basis, Debye-Ang):
   XX=            -26.2379   YY=            -19.1034   ZZ=            -18.8798
   XY=              2.2372   XZ=             -9.3546   YZ=              0.0706

 ESP charges:
               1
     1  C   -0.473012
     2  N    0.287476
     3  H    0.225059
     4  O   -0.477287
     5  H    0.183546
     6  H    0.254218
 Sum of ESP charges =  -0.00000

 Summary of Natural Population Analysis:

                                       Natural Population
                Natural  -----------------------------------------------
    Atom  No    Charge         Core      Valence    Rydberg      Total
 -----------------------------------------------------------------------
      C    1   -0.11830      0.99971     2.10649    0.01210     3.11830
      N    2   -0.01139      0.99973     2.49341    0.01826     3.51139
      H    3    0.18017      0.00000     0.31710    0.00274     0.31983
      O    4   -0.25757      0.99993     3.24544    0.01221     4.25757
      H    5    0.09988      0.00000     0.39901    0.00112     0.40012
      H    6    0.10722      0.00000     0.39134    0.00145     0.39278
 =======================================================================
   * Total *    0.00000      2.99936     8.95277    0.04786    12.00000

 Normal termination of Gaussian 16 at Tue Jan  3 09:22:18 2023.
