 Gaussian 16, Revision C.01,

 ----------------------------------------------------------------------
 #p uwb97xd/gen stable=opt scf=(maxcycle=900,verytightlineq,xqc) integr
 al=grid=ultrafine symmetry=None density=current iop(99/18=-1) output=w
 fn
 ----------------------------------------------------------------------

 0003_q000_m01_k00_opt_uwb97xd_def2svpd/0003_q000_m01_k00_force_uwb97xd
 _def2qzvpd stable-force
 ----------------------------------------------------------------------
 Symbolic Z-matrix:
 Charge =  0 Multiplicity = 1

 SCF Done:  E(UwB97XD) =  -476.754113548     A.U. after   12 cycles
 Normal termination of Gaussian 16 at Tue Jan  3 09:28:13 2023.
 Gaussian 16:  ES64L-G16RevC.01  3-Jul-2019

 ----------------------------------------------------------------------
 #p uwb97xd/chkbasis force guess=read geom=check scf=(maxcycle=900,very
 tightlineq,xqc) integral=grid=ultrafine symmetry=None density=current
 pop=(cm5,hlygat,mbs,npa) output=wfx
 ----------------------------------------------------------------------

 0003_q000_m01_k00_opt_uwb97xd_def2svpd/0003_q000_m01_k00_force_uwb97xd
 _def2qzvpd stable-force
 ----------------------------------------------------------------------
 Structure from the checkpoint file:  "0003_q000_m01_k00_force_uwb97xd_def2qzvpd.chk"
 Charge =  0 Multiplicity = 1

                          Input orientation:
 ---------------------------------------------------------------------
 Center     Atomic      Atomic             Coordinates (Angstroms)
 Number     Number       Type             X           Y           Z
 ---------------------------------------------------------------------
      1          6           0        0.983833   -0.032559    0.048858
      2         16           0        2.607130    0.099200    0.018798
      3          6           0        3.227323    0.736198   -1.346005
      4          1           0        0.570421   -0.457530    0.959745
      5          1           0        0.343807    0.278223   -0.775492
      6          1           0        2.615219    1.056484   -2.187742
      7          1           0        4.310457    0.823643   -1.365823
 ---------------------------------------------------------------------

 SCF Done:  E(UwB97XD) =  -476.754113548     A.U. after    1 cycles

 Alpha  occ. eigenvalues --  -89.08620 -10.30047 -10.30045  -8.11680  -6.06299
 Alpha  occ. eigenvalues --   -6.06284  -6.05948  -0.94991  -0.79448  -0.66475
 Alpha  occ. eigenvalues --   -0.55773  -0.54635  -0.48690  -0.44655  -0.41577
 Alpha  occ. eigenvalues --   -0.27449
 Alpha virt. eigenvalues --    0.00932   0.05075   0.05444   0.06210   0.07048
 Alpha virt. eigenvalues --    0.10502   0.11524   0.12858   0.13324   0.15973
 Alpha virt. eigenvalues --    0.17930   0.18606   0.18621   0.19478   0.20403

  Beta  occ. eigenvalues --  -89.08620 -10.30047 -10.30045  -8.11680  -6.06299
  Beta  occ. eigenvalues --   -6.06284  -6.05948  -0.94991  -0.79448  -0.66475
  Beta  occ. eigenvalues --   -0.55773  -0.54635  -0.48690  -0.44655  -0.41577
  Beta  occ. eigenvalues --   -0.27449
  Beta virt. eigenvalues --    0.00932   0.05075   0.05444   0.06210   0.07048
  Beta virt. eigenvalues --    0.10502   0.11524   0.12858   0.13324   0.15973
  Beta virt. eigenvalues --    0.17930   0.18606   0.18621   0.19478   0.20403

 Mulliken charges and spin densities:
               1          2
     1  C   -0.338487  -0.000000
     2  S   -0.073746   0.000000
     3  C   -0.338378  -0.000000
     4  H    0.238057   0.000000
     5  H    0.137259   0.000000
     6  H    0.137222   0.000000
     7  H    0.238072  -0.000000
 Sum of Mulliken charges =  -0.00000   0.00000

 Dipole moment (field-independent basis, Debye):
    X=             -0.1886    Y=              0.0953    Z=             -0.2514  Tot=              0.3285
 Quadrupole moment (field-independent basis, Debye-Ang):
   XX=            -25.2248   YY=            -28.3886   ZZ=            -24.9650
   XY=              0.5040   XZ=             -0.4550   YZ=             -1.8579

 ESP charges:
               1
     1  C   -0.577262
     2  S    0.250232
     3  C   -0.579158
     4  H    0.208670
     5  H    0.243735
     6  H    0.244598
     7  H    0.209185
 Sum of ESP charges =   0.00000

 Summary of Natural Population Analysis:

                                       Natural Population
                Natural  -----------------------------------------------
    Atom  No    Charge         Core      Valence    Rydberg      Total
 -----------------------------------------------------------------------
      C    1   -0.42286      0.99980     2.40967    0.01338     3.42286
      S    2    0.38431      4.99921     2.56479    0.05169     7.61569
      C    3   -0.42286      0.99980     2.40968    0.01339     3.42286
      H    4    0.11755      0.00000     0.38035    0.00211     0.38245
      H    5    0.11315      0.00000     0.38509    0.00175     0.38685
      H    6    0.11316      0.00000     0.38509    0.00175     0.38684
      H    7    0.11755      0.00000     0.38034    0.00210     0.38245
 =======================================================================
   * Total *   -0.00000      6.99881     8.91502    0.08617    16.00000

 Normal termination of Gaussian 16 at Tue Jan  3 09:33:19 2023.
