 Gaussian 16, Revision C.01,

 ----------------------------------------------------------------------
 #p uhf/gen stable=opt scf=(maxcycle=900,verytightlineq,xqc) integral=g
 rid=ultrafine symmetry=None density=current iop(99/18=-1) output=wfn
 ----------------------------------------------------------------------

 0003_q000_m01_k00_opt_uwb97xd_def2svpd/0003_q000_m01_k00_force_uhf_def
 2qzvpd stable-force
 ----------------------------------------------------------------------
 Symbolic Z-matrix:
 Charge =  0 Multiplicity = 1

 SCF Done:  E(UHF) =  -475.546548392     A.U. after   11 cycles
 SCF Done:  E(UHF) =  -475.564570166     a.u. after    9 cycles
 Normal termination of Gaussian 16 at Tue Jan  3 09:57:20 2023.
 Gaussian 16:  ES64L-G16RevC.01  3-Jul-2019

 ----------------------------------------------------------------------
 #p uhf/chkbasis force guess=read geom=check scf=(maxcycle=900,verytigh
 tlineq,xqc) integral=grid=ultrafine symmetry=None density=current pop=
 (cm5,hlygat,mbs,npa) output=wfx
 ----------------------------------------------------------------------

 0003_q000_m01_k00_opt_uwb97xd_def2svpd/0003_q000_m01_k00_force_uhf_def
 2qzvpd stable-force
 ----------------------------------------------------------------------
 Structure from the checkpoint file:  "0003_q000_m01_k00_force_uhf_def2qzvpd.chk"
 Charge =  0 Multiplicity = 1

                          Input orientation:
 ---------------------------------------------------------------------
 Center     Atomic      Atomic             Coordinates (Angstroms)
 Number     Number       Type             X           Y           Z
 ---------------------------------------------------------------------
      1          6           0        0.983833   -0.032559    0.048858
      2         16           0        2.607130    0.099200    0.018798
      3          6           0        3.227323    0.736198   -1.346005
      4          1           0        0.570421   -0.457530    0.959745
      5          1           0        0.343807    0.278223   -0.775492
      6          1           0        2.615219    1.056484   -2.187742
      7          1           0        4.310457    0.823643   -1.365823
 ---------------------------------------------------------------------

 SCF Done:  E(UHF) =  -475.564570167     A.U. after    1 cycles

 Alpha  occ. eigenvalues --  -91.98880 -11.25098 -11.23198  -8.98969  -6.67190
 Alpha  occ. eigenvalues --   -6.67046  -6.67042  -1.11293  -0.93971  -0.76581
 Alpha  occ. eigenvalues --   -0.63492  -0.61852  -0.55512  -0.49374  -0.45212
 Alpha  occ. eigenvalues --   -0.31299
 Alpha virt. eigenvalues --    0.05140   0.05345   0.06184   0.06533   0.10161
 Alpha virt. eigenvalues --    0.10592   0.12088   0.14783   0.17226   0.17943
 Alpha virt. eigenvalues --    0.18988   0.19693   0.21073   0.21553   0.22895

  Beta  occ. eigenvalues --  -91.98879 -11.25099 -11.23197  -8.98969  -6.67190
  Beta  occ. eigenvalues --   -6.67046  -6.67042  -1.11292  -0.93972  -0.76580
  Beta  occ. eigenvalues --   -0.63492  -0.61852  -0.55512  -0.49374  -0.45212
  Beta  occ. eigenvalues --   -0.31301
  Beta virt. eigenvalues --    0.05140   0.05345   0.06184   0.06533   0.10161
  Beta virt. eigenvalues --    0.10592   0.12088   0.14783   0.17226   0.17943
  Beta virt. eigenvalues --    0.18988   0.19693   0.21073   0.21553   0.22895

 Mulliken charges and spin densities:
               1          2
     1  C   -0.284971  -0.900899
     2  S    0.013794   0.000056
     3  C   -0.284955   0.900838
     4  H    0.174952   0.065493
     5  H    0.103121   0.084850
     6  H    0.103109  -0.084847
     7  H    0.174949  -0.065490
 Sum of Mulliken charges =  -0.00000  -0.00000

 Dipole moment (field-independent basis, Debye):
    X=             -0.4914    Y=              0.2476    Z=             -0.6538  Tot=              0.8546
 Quadrupole moment (field-independent basis, Debye-Ang):
   XX=            -26.4191   YY=            -28.5392   ZZ=            -25.0224
   XY=              1.1110   XZ=             -1.9556   YZ=             -2.0185

 ESP charges:
               1
     1  C   -0.432297
     2  S    0.060674
     3  C   -0.433614
     4  H    0.191360
     5  H    0.210771
     6  H    0.211429
     7  H    0.191678
 Sum of ESP charges =   0.00000

 Summary of Natural Population Analysis:

                                       Natural Population
                Natural  -----------------------------------------------
    Atom  No    Charge         Core      Valence    Rydberg      Total
 -----------------------------------------------------------------------
      C    1   -0.74642      0.99980     2.73171    0.01491     3.74642
      S    2    0.28113      4.99928     2.66559    0.05401     7.71887
      C    3    0.05946      0.99979     1.92230    0.01844     2.94054
      H    4    0.12382      0.00000     0.37440    0.00178     0.37618
      H    5    0.11975      0.00000     0.37848    0.00177     0.38025
      H    6    0.07805      0.00000     0.42054    0.00141     0.42195
      H    7    0.08422      0.00000     0.41408    0.00170     0.41578
 =======================================================================
   * Total *   -0.00000      6.99887     8.90710    0.09403    16.00000

 Normal termination of Gaussian 16 at Tue Jan  3 10:00:09 2023.
