 Gaussian 16, Revision C.01,

 ----------------------------------------------------------------------
 #p uhf/gen stable=opt scf=(maxcycle=900,verytightlineq,xqc) integral=g
 rid=ultrafine symmetry=None density=current iop(99/18=-1) output=wfn
 ----------------------------------------------------------------------

 0003_q000_m01_k00_opt_uwb97xd_def2svpd/0003_q000_m01_k00_force_uhf_def
 2tzvpd stable-force
 ----------------------------------------------------------------------
 Symbolic Z-matrix:
 Charge =  0 Multiplicity = 1

 SCF Done:  E(UHF) =  -475.530336279     A.U. after   12 cycles
 SCF Done:  E(UHF) =  -475.548301115     a.u. after    9 cycles
 Normal termination of Gaussian 16 at Tue Jan  3 09:06:19 2023.
 Gaussian 16:  ES64L-G16RevC.01  3-Jul-2019

 ----------------------------------------------------------------------
 #p uhf/chkbasis force guess=read geom=check scf=(maxcycle=900,verytigh
 tlineq,xqc) integral=grid=ultrafine symmetry=None density=current pop=
 (cm5,hlygat,mbs,npa) output=wfx
 ----------------------------------------------------------------------

 0003_q000_m01_k00_opt_uwb97xd_def2svpd/0003_q000_m01_k00_force_uhf_def
 2tzvpd stable-force
 ----------------------------------------------------------------------
 Structure from the checkpoint file:  "0003_q000_m01_k00_force_uhf_def2tzvpd.chk"
 Charge =  0 Multiplicity = 1

                          Input orientation:
 ---------------------------------------------------------------------
 Center     Atomic      Atomic             Coordinates (Angstroms)
 Number     Number       Type             X           Y           Z
 ---------------------------------------------------------------------
      1          6           0        0.983833   -0.032559    0.048858
      2         16           0        2.607130    0.099200    0.018798
      3          6           0        3.227323    0.736198   -1.346005
      4          1           0        0.570421   -0.457530    0.959745
      5          1           0        0.343807    0.278223   -0.775492
      6          1           0        2.615219    1.056484   -2.187742
      7          1           0        4.310457    0.823643   -1.365823
 ---------------------------------------------------------------------

 SCF Done:  E(UHF) =  -475.548301115     A.U. after    1 cycles

 Alpha  occ. eigenvalues --  -91.98686 -11.25109 -11.23179  -8.99065  -6.67288
 Alpha  occ. eigenvalues --   -6.67132  -6.67119  -1.11337  -0.93985  -0.76581
 Alpha  occ. eigenvalues --   -0.63502  -0.61868  -0.55532  -0.49366  -0.45199
 Alpha  occ. eigenvalues --   -0.31281
 Alpha virt. eigenvalues --    0.06479   0.06830   0.07860   0.08190   0.10751
 Alpha virt. eigenvalues --    0.12390   0.14716   0.15171   0.18391   0.18671
 Alpha virt. eigenvalues --    0.20499   0.22552   0.24418   0.24676   0.26185

  Beta  occ. eigenvalues --  -91.98686 -11.25110 -11.23178  -8.99065  -6.67288
  Beta  occ. eigenvalues --   -6.67132  -6.67119  -1.11336  -0.93986  -0.76581
  Beta  occ. eigenvalues --   -0.63502  -0.61868  -0.55532  -0.49365  -0.45199
  Beta  occ. eigenvalues --   -0.31283
  Beta virt. eigenvalues --    0.06479   0.06830   0.07860   0.08190   0.10751
  Beta virt. eigenvalues --    0.12390   0.14716   0.15171   0.18391   0.18671
  Beta virt. eigenvalues --    0.20499   0.22552   0.24418   0.24676   0.26185

 Mulliken charges and spin densities:
               1          2
     1  C   -0.373063  -0.890091
     2  S    0.043898   0.000062
     3  C   -0.373050   0.890027
     4  H    0.171324   0.053598
     5  H    0.179788   0.078009
     6  H    0.179778  -0.078010
     7  H    0.171326  -0.053595
 Sum of Mulliken charges =  -0.00000  -0.00000

 Dipole moment (field-independent basis, Debye):
    X=             -0.4918    Y=              0.2479    Z=             -0.6545  Tot=              0.8554
 Quadrupole moment (field-independent basis, Debye-Ang):
   XX=            -26.4070   YY=            -28.5687   ZZ=            -25.0166
   XY=              1.1152   XZ=             -1.9567   YZ=             -2.0375

 ESP charges:
               1
     1  C   -0.440504
     2  S    0.063926
     3  C   -0.441737
     4  H    0.194611
     5  H    0.214088
     6  H    0.214720
     7  H    0.194895
 Sum of ESP charges =  -0.00000

 Summary of Natural Population Analysis:

                                       Natural Population
                Natural  -----------------------------------------------
    Atom  No    Charge         Core      Valence    Rydberg      Total
 -----------------------------------------------------------------------
      C    1   -0.74291      0.99980     2.72758    0.01553     3.74291
      S    2    0.28231      4.99929     2.66552    0.05289     7.71769
      C    3    0.06142      0.99979     1.91902    0.01977     2.93858
      H    4    0.12266      0.00000     0.37550    0.00184     0.37734
      H    5    0.11728      0.00000     0.38062    0.00210     0.38272
      H    6    0.07597      0.00000     0.42263    0.00140     0.42403
      H    7    0.08327      0.00000     0.41506    0.00167     0.41673
 =======================================================================
   * Total *    0.00000      6.99888     8.90593    0.09520    16.00000

 Normal termination of Gaussian 16 at Tue Jan  3 09:06:34 2023.
