 Gaussian 16, Revision C.01,

 ----------------------------------------------------------------------
 #p ub3lyp/gen stable=opt scf=(maxcycle=900,verytightlineq,xqc) integra
 l=grid=ultrafine symmetry=None density=current iop(99/18=-1) output=wf
 n
 ----------------------------------------------------------------------

 0003_q000_m01_k00_opt_uwb97xd_def2svpd/0003_q000_m01_k00_force_ub3lyp_
 def2qzvpd stable-force
 ----------------------------------------------------------------------
 Symbolic Z-matrix:
 Charge =  0 Multiplicity = 1

 SCF Done:  E(UB3LYP) =  -476.811771025     A.U. after   10 cycles
 Normal termination of Gaussian 16 at Tue Jan  3 09:23:11 2023.
 Gaussian 16:  ES64L-G16RevC.01  3-Jul-2019

 ----------------------------------------------------------------------
 #p ub3lyp/chkbasis force guess=read geom=check scf=(maxcycle=900,veryt
 ightlineq,xqc) integral=grid=ultrafine symmetry=None density=current p
 op=(cm5,hlygat,mbs,npa) output=wfx
 ----------------------------------------------------------------------

 0003_q000_m01_k00_opt_uwb97xd_def2svpd/0003_q000_m01_k00_force_ub3lyp_
 def2qzvpd stable-force
 ----------------------------------------------------------------------
 Structure from the checkpoint file:  "0003_q000_m01_k00_force_ub3lyp_def2qzvpd.chk"
 Charge =  0 Multiplicity = 1

                          Input orientation:
 ---------------------------------------------------------------------
 Center     Atomic      Atomic             Coordinates (Angstroms)
 Number     Number       Type             X           Y           Z
 ---------------------------------------------------------------------
      1          6           0        0.983833   -0.032559    0.048858
      2         16           0        2.607130    0.099200    0.018798
      3          6           0        3.227323    0.736198   -1.346005
      4          1           0        0.570421   -0.457530    0.959745
      5          1           0        0.343807    0.278223   -0.775492
      6          1           0        2.615219    1.056484   -2.187742
      7          1           0        4.310457    0.823643   -1.365823
 ---------------------------------------------------------------------

 SCF Done:  E(UB3LYP) =  -476.811771025     A.U. after    1 cycles

 Alpha  occ. eigenvalues --  -88.91653 -10.18955 -10.18954  -7.99317  -5.95409
 Alpha  occ. eigenvalues --   -5.95389  -5.95076  -0.85231  -0.70007  -0.57529
 Alpha  occ. eigenvalues --   -0.47267  -0.46415  -0.40839  -0.36256  -0.33739
 Alpha  occ. eigenvalues --   -0.20500
 Alpha virt. eigenvalues --   -0.06058   0.00163   0.00909   0.01585   0.03028
 Alpha virt. eigenvalues --    0.05304   0.05437   0.06442   0.06854   0.09638
 Alpha virt. eigenvalues --    0.11841   0.11952   0.12293   0.12848   0.14189

  Beta  occ. eigenvalues --  -88.91653 -10.18955 -10.18954  -7.99317  -5.95409
  Beta  occ. eigenvalues --   -5.95389  -5.95076  -0.85231  -0.70007  -0.57529
  Beta  occ. eigenvalues --   -0.47267  -0.46415  -0.40839  -0.36256  -0.33739
  Beta  occ. eigenvalues --   -0.20500
  Beta virt. eigenvalues --   -0.06058   0.00163   0.00909   0.01585   0.03028
  Beta virt. eigenvalues --    0.05304   0.05437   0.06442   0.06854   0.09638
  Beta virt. eigenvalues --    0.11841   0.11952   0.12293   0.12848   0.14189

 Mulliken charges and spin densities:
               1          2
     1  C   -0.255222   0.000000
     2  S    0.029477   0.000000
     3  C   -0.255210  -0.000000
     4  H    0.137436  -0.000000
     5  H    0.103029   0.000000
     6  H    0.103095   0.000000
     7  H    0.137394   0.000000
 Sum of Mulliken charges =   0.00000  -0.00000

 Dipole moment (field-independent basis, Debye):
    X=             -0.1751    Y=              0.0885    Z=             -0.2333  Tot=              0.3048
 Quadrupole moment (field-independent basis, Debye-Ang):
   XX=            -25.6253   YY=            -28.6096   ZZ=            -25.3568
   XY=              0.4489   XZ=             -0.3685   YZ=             -1.7590

 ESP charges:
               1
     1  C   -0.546699
     2  S    0.241386
     3  C   -0.548827
     4  H    0.195270
     5  H    0.231025
     6  H    0.231981
     7  H    0.195863
 Sum of ESP charges =  -0.00000

 Summary of Natural Population Analysis:

                                       Natural Population
                Natural  -----------------------------------------------
    Atom  No    Charge         Core      Valence    Rydberg      Total
 -----------------------------------------------------------------------
      C    1   -0.41425      0.99979     2.40138    0.01307     3.41425
      S    2    0.37612      4.99921     2.57339    0.05128     7.62388
      C    3   -0.41426      0.99979     2.40139    0.01307     3.41426
      H    4    0.11560      0.00000     0.38201    0.00239     0.38440
      H    5    0.11059      0.00000     0.38748    0.00194     0.38941
      H    6    0.11059      0.00000     0.38748    0.00194     0.38941
      H    7    0.11560      0.00000     0.38201    0.00239     0.38440
 =======================================================================
   * Total *    0.00000      6.99880     8.91513    0.08607    16.00000

 Normal termination of Gaussian 16 at Tue Jan  3 09:26:22 2023.
