 Gaussian 16, Revision C.01,

 ----------------------------------------------------------------------
 #p uhf/gen stable=opt scf=(maxcycle=900,verytightlineq,xqc) integral=g
 rid=ultrafine symmetry=None density=current iop(99/18=-1) output=wfn
 ----------------------------------------------------------------------

 0003_q000_m01_k00_opt_uwb97xd_def2svpd/0003_q000_m01_k00_force_uhf_def
 2svpd stable-force
 ----------------------------------------------------------------------
 Symbolic Z-matrix:
 Charge =  0 Multiplicity = 1

 SCF Done:  E(UHF) =  -475.302382162     A.U. after   12 cycles
 SCF Done:  E(UHF) =  -475.322637231     a.u. after    9 cycles
 Normal termination of Gaussian 16 at Tue Jan  3 09:05:42 2023.
 Gaussian 16:  ES64L-G16RevC.01  3-Jul-2019

 ----------------------------------------------------------------------
 #p uhf/chkbasis force guess=read geom=check scf=(maxcycle=900,verytigh
 tlineq,xqc) integral=grid=ultrafine symmetry=None density=current pop=
 (cm5,hlygat,mbs,npa) output=wfx
 ----------------------------------------------------------------------

 0003_q000_m01_k00_opt_uwb97xd_def2svpd/0003_q000_m01_k00_force_uhf_def
 2svpd stable-force
 ----------------------------------------------------------------------
 Structure from the checkpoint file:  "0003_q000_m01_k00_force_uhf_def2svpd.chk"
 Charge =  0 Multiplicity = 1

                          Input orientation:
 ---------------------------------------------------------------------
 Center     Atomic      Atomic             Coordinates (Angstroms)
 Number     Number       Type             X           Y           Z
 ---------------------------------------------------------------------
      1          6           0        0.983833   -0.032559    0.048858
      2         16           0        2.607130    0.099200    0.018798
      3          6           0        3.227323    0.736198   -1.346005
      4          1           0        0.570421   -0.457530    0.959745
      5          1           0        0.343807    0.278223   -0.775492
      6          1           0        2.615219    1.056484   -2.187742
      7          1           0        4.310457    0.823643   -1.365823
 ---------------------------------------------------------------------

 SCF Done:  E(UHF) =  -475.322637231     A.U. after    1 cycles

 Alpha  occ. eigenvalues --  -91.96546 -11.25880 -11.23769  -8.99712  -6.68596
 Alpha  occ. eigenvalues --   -6.68350  -6.68291  -1.11406  -0.93400  -0.76270
 Alpha  occ. eigenvalues --   -0.63867  -0.62249  -0.55853  -0.49693  -0.45300
 Alpha  occ. eigenvalues --   -0.31396
 Alpha virt. eigenvalues --    0.09739   0.10042   0.10381   0.10607   0.13168
 Alpha virt. eigenvalues --    0.15014   0.15596   0.19388   0.22085   0.24769
 Alpha virt. eigenvalues --    0.26678   0.27311   0.29739   0.31238   0.32321

  Beta  occ. eigenvalues --  -91.96546 -11.25879 -11.23770  -8.99712  -6.68596
  Beta  occ. eigenvalues --   -6.68350  -6.68291  -1.11406  -0.93399  -0.76271
  Beta  occ. eigenvalues --   -0.63867  -0.62249  -0.55853  -0.49694  -0.45300
  Beta  occ. eigenvalues --   -0.31394
  Beta virt. eigenvalues --    0.09739   0.10042   0.10381   0.10606   0.13169
  Beta virt. eigenvalues --    0.15014   0.15596   0.19388   0.22086   0.24769
  Beta virt. eigenvalues --    0.26678   0.27311   0.29740   0.31238   0.32321

 Mulliken charges and spin densities:
               1          2
     1  C    0.221996   1.009154
     2  S   -0.299019  -0.000062
     3  C    0.222010  -1.009081
     4  H   -0.055825  -0.107469
     5  H   -0.016687  -0.102411
     6  H   -0.016648   0.102407
     7  H   -0.055827   0.107463
 Sum of Mulliken charges =   0.00000  -0.00000

 Dipole moment (field-independent basis, Debye):
    X=             -0.5225    Y=              0.2633    Z=             -0.6952  Tot=              0.9086
 Quadrupole moment (field-independent basis, Debye-Ang):
   XX=            -26.6168   YY=            -28.7009   ZZ=            -25.1159
   XY=              1.1783   XZ=             -2.1069   YZ=             -2.0662

 ESP charges:
               1
     1  C   -0.436846
     2  S    0.048630
     3  C   -0.437319
     4  H    0.197674
     5  H    0.214894
     6  H    0.215283
     7  H    0.197684
 Sum of ESP charges =  -0.00000

 Summary of Natural Population Analysis:

                                       Natural Population
                Natural  -----------------------------------------------
    Atom  No    Charge         Core      Valence    Rydberg      Total
 -----------------------------------------------------------------------
      C    1    0.07023      0.99981     1.91469    0.01527     2.92977
      S    2    0.24893      4.99923     2.70503    0.04681     7.75107
      C    3   -0.74704      0.99981     2.73405    0.01319     3.74704
      H    4    0.09117      0.00000     0.40589    0.00294     0.40883
      H    5    0.08240      0.00000     0.41532    0.00228     0.41760
      H    6    0.12377      0.00000     0.37348    0.00275     0.37623
      H    7    0.13055      0.00000     0.36607    0.00339     0.36945
 =======================================================================
   * Total *    0.00000      6.99885     8.91452    0.08663    16.00000

 Normal termination of Gaussian 16 at Tue Jan  3 09:05:48 2023.
