 Gaussian 16, Revision C.01,

 ----------------------------------------------------------------------
 #p uwb97xd/gen stable=opt scf=(maxcycle=900,verytightlineq,xqc) integr
 al=grid=ultrafine symmetry=None density=current iop(99/18=-1) output=w
 fn
 ----------------------------------------------------------------------

 0003_q000_m01_k00_opt_uwb97xd_def2svpd/0003_q000_m01_k00_force_uwb97xd
 _def2tzvpd stable-force
 ----------------------------------------------------------------------
 Symbolic Z-matrix:
 Charge =  0 Multiplicity = 1

 SCF Done:  E(UwB97XD) =  -476.735315853     A.U. after   12 cycles
 Normal termination of Gaussian 16 at Tue Jan  3 09:08:07 2023.
 Gaussian 16:  ES64L-G16RevC.01  3-Jul-2019

 ----------------------------------------------------------------------
 #p uwb97xd/chkbasis force guess=read geom=check scf=(maxcycle=900,very
 tightlineq,xqc) integral=grid=ultrafine symmetry=None density=current
 pop=(cm5,hlygat,mbs,npa) output=wfx
 ----------------------------------------------------------------------

 0003_q000_m01_k00_opt_uwb97xd_def2svpd/0003_q000_m01_k00_force_uwb97xd
 _def2tzvpd stable-force
 ----------------------------------------------------------------------
 Structure from the checkpoint file:  "0003_q000_m01_k00_force_uwb97xd_def2tzvpd.chk"
 Charge =  0 Multiplicity = 1

                          Input orientation:
 ---------------------------------------------------------------------
 Center     Atomic      Atomic             Coordinates (Angstroms)
 Number     Number       Type             X           Y           Z
 ---------------------------------------------------------------------
      1          6           0        0.983833   -0.032559    0.048858
      2         16           0        2.607130    0.099200    0.018798
      3          6           0        3.227323    0.736198   -1.346005
      4          1           0        0.570421   -0.457530    0.959745
      5          1           0        0.343807    0.278223   -0.775492
      6          1           0        2.615219    1.056484   -2.187742
      7          1           0        4.310457    0.823643   -1.365823
 ---------------------------------------------------------------------

 SCF Done:  E(UwB97XD) =  -476.735315853     A.U. after    1 cycles

 Alpha  occ. eigenvalues --  -89.08699 -10.29854 -10.29852  -8.11553  -6.06175
 Alpha  occ. eigenvalues --   -6.06132  -6.05799  -0.95027  -0.79465  -0.66473
 Alpha  occ. eigenvalues --   -0.55785  -0.54653  -0.48711  -0.44642  -0.41570
 Alpha  occ. eigenvalues --   -0.27434
 Alpha virt. eigenvalues --    0.01015   0.06203   0.06672   0.07620   0.08651
 Alpha virt. eigenvalues --    0.12016   0.12915   0.13726   0.14461   0.16811
 Alpha virt. eigenvalues --    0.18810   0.20429   0.20570   0.22008   0.23105

  Beta  occ. eigenvalues --  -89.08699 -10.29854 -10.29852  -8.11553  -6.06175
  Beta  occ. eigenvalues --   -6.06132  -6.05799  -0.95027  -0.79465  -0.66473
  Beta  occ. eigenvalues --   -0.55785  -0.54653  -0.48711  -0.44642  -0.41570
  Beta  occ. eigenvalues --   -0.27434
  Beta virt. eigenvalues --    0.01015   0.06203   0.06672   0.07620   0.08651
  Beta virt. eigenvalues --    0.12016   0.12915   0.13726   0.14461   0.16811
  Beta virt. eigenvalues --    0.18810   0.20429   0.20570   0.22008   0.23105

 Mulliken charges and spin densities:
               1          2
     1  C   -0.690244   0.000000
     2  S    0.121305   0.000000
     3  C   -0.690178   0.000000
     4  H    0.324690   0.000000
     5  H    0.304861   0.000000
     6  H    0.304871   0.000000
     7  H    0.324694   0.000000
 Sum of Mulliken charges =  -0.00000   0.00000

 Dipole moment (field-independent basis, Debye):
    X=             -0.1853    Y=              0.0937    Z=             -0.2470  Tot=              0.3227
 Quadrupole moment (field-independent basis, Debye-Ang):
   XX=            -25.2000   YY=            -28.4203   ZZ=            -24.9619
   XY=              0.5012   XZ=             -0.4383   YZ=             -1.8754

 ESP charges:
               1
     1  C   -0.588702
     2  S    0.256442
     3  C   -0.590473
     4  H    0.212683
     5  H    0.248039
     6  H    0.248864
     7  H    0.213146
 Sum of ESP charges =  -0.00000

 Summary of Natural Population Analysis:

                                       Natural Population
                Natural  -----------------------------------------------
    Atom  No    Charge         Core      Valence    Rydberg      Total
 -----------------------------------------------------------------------
      C    1   -0.41883      0.99979     2.40494    0.01410     3.41883
      S    2    0.38322      4.99920     2.56770    0.04988     7.61678
      C    3   -0.41884      0.99979     2.40494    0.01411     3.41884
      H    4    0.11633      0.00000     0.38141    0.00226     0.38367
      H    5    0.11090      0.00000     0.38725    0.00185     0.38910
      H    6    0.11090      0.00000     0.38725    0.00185     0.38910
      H    7    0.11633      0.00000     0.38141    0.00226     0.38367
 =======================================================================
   * Total *    0.00000      6.99877     8.91490    0.08632    16.00000

 Normal termination of Gaussian 16 at Tue Jan  3 09:08:35 2023.
