 Gaussian 16, Revision C.01,

 ----------------------------------------------------------------------
 #p uwb97xd/gen stable=opt scf=(maxcycle=900,verytightlineq,xqc) integr
 al=grid=ultrafine symmetry=None density=current iop(99/18=-1) output=w
 fn
 ----------------------------------------------------------------------

 0003_q000_m01_k00_opt_uwb97xd_def2svpd/0003_q000_m01_k00_force_uwb97xd
 _def2svpd stable-force
 ----------------------------------------------------------------------
 Symbolic Z-matrix:
 Charge =  0 Multiplicity = 1

 SCF Done:  E(UwB97XD) =  -476.510183521     A.U. after   12 cycles
 Normal termination of Gaussian 16 at Tue Jan  3 09:06:43 2023.
 Gaussian 16:  ES64L-G16RevC.01  3-Jul-2019

 ----------------------------------------------------------------------
 #p uwb97xd/chkbasis force guess=read geom=check scf=(maxcycle=900,very
 tightlineq,xqc) integral=grid=ultrafine symmetry=None density=current
 pop=(cm5,hlygat,mbs,npa) output=wfx
 ----------------------------------------------------------------------

 0003_q000_m01_k00_opt_uwb97xd_def2svpd/0003_q000_m01_k00_force_uwb97xd
 _def2svpd stable-force
 ----------------------------------------------------------------------
 Structure from the checkpoint file:  "0003_q000_m01_k00_force_uwb97xd_def2svpd.chk"
 Charge =  0 Multiplicity = 1

                          Input orientation:
 ---------------------------------------------------------------------
 Center     Atomic      Atomic             Coordinates (Angstroms)
 Number     Number       Type             X           Y           Z
 ---------------------------------------------------------------------
      1          6           0        0.983833   -0.032559    0.048858
      2         16           0        2.607130    0.099200    0.018798
      3          6           0        3.227323    0.736198   -1.346005
      4          1           0        0.570421   -0.457530    0.959745
      5          1           0        0.343807    0.278223   -0.775492
      6          1           0        2.615219    1.056484   -2.187742
      7          1           0        4.310457    0.823643   -1.365823
 ---------------------------------------------------------------------

 SCF Done:  E(UwB97XD) =  -476.510183521     A.U. after    1 cycles

 Alpha  occ. eigenvalues --  -89.09199 -10.31321 -10.31313  -8.13364  -6.08638
 Alpha  occ. eigenvalues --   -6.08482  -6.08179  -0.95460  -0.79223  -0.66202
 Alpha  occ. eigenvalues --   -0.56023  -0.54989  -0.48931  -0.45010  -0.41779
 Alpha  occ. eigenvalues --   -0.27427
 Alpha virt. eigenvalues --    0.00999   0.08588   0.09168   0.09921   0.12043
 Alpha virt. eigenvalues --    0.13858   0.14872   0.15269   0.16753   0.21593
 Alpha virt. eigenvalues --    0.23274   0.24450   0.25171   0.26798   0.27931

  Beta  occ. eigenvalues --  -89.09199 -10.31321 -10.31313  -8.13364  -6.08638
  Beta  occ. eigenvalues --   -6.08482  -6.08179  -0.95460  -0.79223  -0.66202
  Beta  occ. eigenvalues --   -0.56023  -0.54989  -0.48931  -0.45010  -0.41779
  Beta  occ. eigenvalues --   -0.27427
  Beta virt. eigenvalues --    0.00999   0.08588   0.09168   0.09921   0.12043
  Beta virt. eigenvalues --    0.13858   0.14872   0.15269   0.16753   0.21593
  Beta virt. eigenvalues --    0.23274   0.24450   0.25171   0.26798   0.27931

 Mulliken charges and spin densities:
               1          2
     1  C    0.370389   0.000000
     2  S   -0.130651   0.000000
     3  C    0.370375   0.000000
     4  H   -0.188126   0.000000
     5  H   -0.116975   0.000000
     6  H   -0.116918   0.000000
     7  H   -0.188094   0.000000
 Sum of Mulliken charges =  -0.00000   0.00000

 Dipole moment (field-independent basis, Debye):
    X=             -0.2089    Y=              0.1056    Z=             -0.2784  Tot=              0.3637
 Quadrupole moment (field-independent basis, Debye-Ang):
   XX=            -25.4096   YY=            -28.5044   ZZ=            -25.0802
   XY=              0.5487   XZ=             -0.5646   YZ=             -1.8666

 ESP charges:
               1
     1  C   -0.578046
     2  S    0.240845
     3  C   -0.579014
     4  H    0.212346
     5  H    0.245396
     6  H    0.245957
     7  H    0.212517
 Sum of ESP charges =  -0.00000

 Summary of Natural Population Analysis:

                                       Natural Population
                Natural  -----------------------------------------------
    Atom  No    Charge         Core      Valence    Rydberg      Total
 -----------------------------------------------------------------------
      C    1   -0.42353      0.99979     2.41069    0.01305     3.42353
      S    2    0.36140      4.99913     2.59652    0.04295     7.63860
      C    3   -0.42353      0.99979     2.41068    0.01306     3.42353
      H    4    0.12505      0.00000     0.37260    0.00235     0.37495
      H    5    0.11777      0.00000     0.38027    0.00196     0.38223
      H    6    0.11778      0.00000     0.38027    0.00196     0.38222
      H    7    0.12506      0.00000     0.37260    0.00235     0.37494
 =======================================================================
   * Total *   -0.00000      6.99871     8.92362    0.07767    16.00000

 Optimization completed.
    -- Stationary point found.
 Normal termination of Gaussian 16 at Tue Jan  3 09:06:53 2023.
