 Gaussian 16, Revision C.01,

 ----------------------------------------------------------------------
 #p ub3lyp/gen stable=opt scf=(maxcycle=900,verytightlineq,xqc) integra
 l=grid=ultrafine symmetry=None density=current iop(99/18=-1) output=wf
 n
 ----------------------------------------------------------------------

 0003_q000_m01_k00_opt_uwb97xd_def2svpd/0003_q000_m01_k00_force_ub3lyp_
 def2svp stable-force
 ----------------------------------------------------------------------
 Symbolic Z-matrix:
 Charge =  0 Multiplicity = 1

 SCF Done:  E(UB3LYP) =  -476.551737827     A.U. after   13 cycles
 Normal termination of Gaussian 16 at Tue Jan  3 09:05:30 2023.
 Gaussian 16:  ES64L-G16RevC.01  3-Jul-2019

 ----------------------------------------------------------------------
 #p ub3lyp/chkbasis force guess=read geom=check scf=(maxcycle=900,veryt
 ightlineq,xqc) integral=grid=ultrafine symmetry=None density=current p
 op=(cm5,hlygat,mbs,npa) output=wfx
 ----------------------------------------------------------------------

 0003_q000_m01_k00_opt_uwb97xd_def2svpd/0003_q000_m01_k00_force_ub3lyp_
 def2svp stable-force
 ----------------------------------------------------------------------
 Structure from the checkpoint file:  "0003_q000_m01_k00_force_ub3lyp_def2svp.chk"
 Charge =  0 Multiplicity = 1

                          Input orientation:
 ---------------------------------------------------------------------
 Center     Atomic      Atomic             Coordinates (Angstroms)
 Number     Number       Type             X           Y           Z
 ---------------------------------------------------------------------
      1          6           0        0.983833   -0.032559    0.048858
      2         16           0        2.607130    0.099200    0.018798
      3          6           0        3.227323    0.736198   -1.346005
      4          1           0        0.570421   -0.457530    0.959745
      5          1           0        0.343807    0.278223   -0.775492
      6          1           0        2.615219    1.056484   -2.187742
      7          1           0        4.310457    0.823643   -1.365823
 ---------------------------------------------------------------------

 SCF Done:  E(UB3LYP) =  -476.551737827     A.U. after    1 cycles

 Alpha  occ. eigenvalues --  -88.90762 -10.19476 -10.19473  -7.99974  -5.96671
 Alpha  occ. eigenvalues --   -5.96499  -5.96217  -0.85020  -0.69025  -0.56475
 Alpha  occ. eigenvalues --   -0.46753  -0.45935  -0.40318  -0.36026  -0.33266
 Alpha  occ. eigenvalues --   -0.19602
 Alpha virt. eigenvalues --   -0.04851   0.07772   0.07773   0.09117   0.12859
 Alpha virt. eigenvalues --    0.15265   0.21015   0.30534   0.39238   0.40409
 Alpha virt. eigenvalues --    0.47392   0.47705   0.49130   0.53563   0.53620

  Beta  occ. eigenvalues --  -88.90762 -10.19476 -10.19473  -7.99974  -5.96671
  Beta  occ. eigenvalues --   -5.96499  -5.96217  -0.85020  -0.69025  -0.56475
  Beta  occ. eigenvalues --   -0.46753  -0.45935  -0.40318  -0.36026  -0.33266
  Beta  occ. eigenvalues --   -0.19602
  Beta virt. eigenvalues --   -0.04851   0.07772   0.07773   0.09117   0.12859
  Beta virt. eigenvalues --    0.15265   0.21015   0.30534   0.39238   0.40409
  Beta virt. eigenvalues --    0.47392   0.47705   0.49130   0.53563   0.53620

 Mulliken charges and spin densities:
               1          2
     1  C   -0.249354  -0.000000
     2  S    0.225065   0.000000
     3  C   -0.249336  -0.000000
     4  H    0.070018  -0.000000
     5  H    0.066794  -0.000000
     6  H    0.066794   0.000000
     7  H    0.070019  -0.000000
 Sum of Mulliken charges =   0.00000   0.00000

 Dipole moment (field-independent basis, Debye):
    X=             -0.0412    Y=              0.0211    Z=             -0.0551  Tot=              0.0720
 Quadrupole moment (field-independent basis, Debye-Ang):
   XX=            -24.8640   YY=            -27.8667   ZZ=            -25.2010
   XY=              0.2611   XZ=              0.0169   YZ=             -1.4248

 ESP charges:
               1
     1  C   -0.510266
     2  S    0.245539
     3  C   -0.511614
     4  H    0.182850
     5  H    0.204839
     6  H    0.205351
     7  H    0.183303
 Sum of ESP charges =  -0.00000

 Summary of Natural Population Analysis:

                                       Natural Population
                Natural  -----------------------------------------------
    Atom  No    Charge         Core      Valence    Rydberg      Total
 -----------------------------------------------------------------------
      C    1   -0.39490      0.99969     2.38492    0.01029     3.39490
      S    2    0.33868      4.99913     2.62363    0.03856     7.66132
      C    3   -0.39490      0.99969     2.38492    0.01029     3.39490
      H    4    0.11598      0.00000     0.38313    0.00089     0.38402
      H    5    0.10958      0.00000     0.38922    0.00121     0.39042
      H    6    0.10958      0.00000     0.38922    0.00121     0.39042
      H    7    0.11599      0.00000     0.38313    0.00089     0.38401
 =======================================================================
   * Total *    0.00000      6.99850     8.93817    0.06333    16.00000

 Normal termination of Gaussian 16 at Tue Jan  3 09:05:37 2023.
