 Gaussian 16, Revision C.01,

 ----------------------------------------------------------------------
 #p uwb97xd/gen stable=opt scf=(maxcycle=900,verytightlineq,xqc) integr
 al=grid=ultrafine symmetry=None density=current iop(99/18=-1) output=w
 fn
 ----------------------------------------------------------------------

 0003_q000_m01_k00_opt_uwb97xd_def2svpd/0003_q000_m01_k00_force_uwb97xd
 _def2qzvp stable-force
 ----------------------------------------------------------------------
 Symbolic Z-matrix:
 Charge =  0 Multiplicity = 1

 SCF Done:  E(UwB97XD) =  -476.753975675     A.U. after   13 cycles
 Normal termination of Gaussian 16 at Tue Jan  3 09:21:38 2023.
 Gaussian 16:  ES64L-G16RevC.01  3-Jul-2019

 ----------------------------------------------------------------------
 #p uwb97xd/chkbasis force guess=read geom=check scf=(maxcycle=900,very
 tightlineq,xqc) integral=grid=ultrafine symmetry=None density=current
 pop=(cm5,hlygat,mbs,npa) output=wfx
 ----------------------------------------------------------------------

 0003_q000_m01_k00_opt_uwb97xd_def2svpd/0003_q000_m01_k00_force_uwb97xd
 _def2qzvp stable-force
 ----------------------------------------------------------------------
 Structure from the checkpoint file:  "0003_q000_m01_k00_force_uwb97xd_def2qzvp.chk"
 Charge =  0 Multiplicity = 1

                          Input orientation:
 ---------------------------------------------------------------------
 Center     Atomic      Atomic             Coordinates (Angstroms)
 Number     Number       Type             X           Y           Z
 ---------------------------------------------------------------------
      1          6           0        0.983833   -0.032559    0.048858
      2         16           0        2.607130    0.099200    0.018798
      3          6           0        3.227323    0.736198   -1.346005
      4          1           0        0.570421   -0.457530    0.959745
      5          1           0        0.343807    0.278223   -0.775492
      6          1           0        2.615219    1.056484   -2.187742
      7          1           0        4.310457    0.823643   -1.365823
 ---------------------------------------------------------------------

 SCF Done:  E(UwB97XD) =  -476.753975675     A.U. after    1 cycles

 Alpha  occ. eigenvalues --  -89.08600 -10.30027 -10.30026  -8.11660  -6.06280
 Alpha  occ. eigenvalues --   -6.06264  -6.05929  -0.94975  -0.79431  -0.66455
 Alpha  occ. eigenvalues --   -0.55759  -0.54613  -0.48675  -0.44640  -0.41564
 Alpha  occ. eigenvalues --   -0.27430
 Alpha virt. eigenvalues --    0.01006   0.10282   0.10473   0.12631   0.13862
 Alpha virt. eigenvalues --    0.15423   0.18728   0.19382   0.19755   0.23874
 Alpha virt. eigenvalues --    0.24639   0.25194   0.25226   0.28036   0.29968

  Beta  occ. eigenvalues --  -89.08600 -10.30027 -10.30026  -8.11660  -6.06280
  Beta  occ. eigenvalues --   -6.06264  -6.05929  -0.94975  -0.79431  -0.66455
  Beta  occ. eigenvalues --   -0.55759  -0.54613  -0.48675  -0.44640  -0.41564
  Beta  occ. eigenvalues --   -0.27430
  Beta virt. eigenvalues --    0.01006   0.10282   0.10473   0.12631   0.13862
  Beta virt. eigenvalues --    0.15423   0.18728   0.19382   0.19755   0.23874
  Beta virt. eigenvalues --    0.24639   0.25194   0.25226   0.28036   0.29968

 Mulliken charges and spin densities:
               1          2
     1  C   -0.248384  -0.000000
     2  S    0.127065  -0.000000
     3  C   -0.248318   0.000000
     4  H    0.098772   0.000000
     5  H    0.086044  -0.000000
     6  H    0.086026  -0.000000
     7  H    0.098794  -0.000000
 Sum of Mulliken charges =  -0.00000   0.00000

 Dipole moment (field-independent basis, Debye):
    X=             -0.1648    Y=              0.0833    Z=             -0.2197  Tot=              0.2869
 Quadrupole moment (field-independent basis, Debye-Ang):
   XX=            -25.0991   YY=            -28.3674   ZZ=            -24.9692
   XY=              0.4800   XZ=             -0.3879   YZ=             -1.8412

 ESP charges:
               1
     1  C   -0.582619
     2  S    0.256216
     3  C   -0.584407
     4  H    0.210920
     5  H    0.243838
     6  H    0.244627
     7  H    0.211426
 Sum of ESP charges =  -0.00000

 Summary of Natural Population Analysis:

                                       Natural Population
                Natural  -----------------------------------------------
    Atom  No    Charge         Core      Valence    Rydberg      Total
 -----------------------------------------------------------------------
      C    1   -0.42679      0.99980     2.41155    0.01544     3.42679
      S    2    0.38724      4.99922     2.56645    0.04709     7.61276
      C    3   -0.42679      0.99980     2.41155    0.01544     3.42679
      H    4    0.11890      0.00000     0.38012    0.00098     0.38110
      H    5    0.11426      0.00000     0.38458    0.00115     0.38574
      H    6    0.11427      0.00000     0.38458    0.00115     0.38573
      H    7    0.11891      0.00000     0.38011    0.00098     0.38109
 =======================================================================
   * Total *    0.00000      6.99881     8.91895    0.08224    16.00000

 Normal termination of Gaussian 16 at Tue Jan  3 09:25:11 2023.
