 Gaussian 16, Revision C.01,

 ----------------------------------------------------------------------
 #p uhf/gen stable=opt scf=(maxcycle=900,verytightlineq,xqc) integral=g
 rid=ultrafine symmetry=None density=current iop(99/18=-1) output=wfn
 ----------------------------------------------------------------------

 0003_q000_m01_k00_opt_uwb97xd_def2svpd/0003_q000_m01_k00_force_uhf_def
 2svp stable-force
 ----------------------------------------------------------------------
 Symbolic Z-matrix:
 Charge =  0 Multiplicity = 1

 SCF Done:  E(UHF) =  -475.290951221     A.U. after   12 cycles
 SCF Done:  E(UHF) =  -475.313237142     a.u. after    8 cycles
 Normal termination of Gaussian 16 at Tue Jan  3 09:05:32 2023.
 Gaussian 16:  ES64L-G16RevC.01  3-Jul-2019

 ----------------------------------------------------------------------
 #p uhf/chkbasis force guess=read geom=check scf=(maxcycle=900,verytigh
 tlineq,xqc) integral=grid=ultrafine symmetry=None density=current pop=
 (cm5,hlygat,mbs,npa) output=wfx
 ----------------------------------------------------------------------

 0003_q000_m01_k00_opt_uwb97xd_def2svpd/0003_q000_m01_k00_force_uhf_def
 2svp stable-force
 ----------------------------------------------------------------------
 Structure from the checkpoint file:  "0003_q000_m01_k00_force_uhf_def2svp.chk"
 Charge =  0 Multiplicity = 1

                          Input orientation:
 ---------------------------------------------------------------------
 Center     Atomic      Atomic             Coordinates (Angstroms)
 Number     Number       Type             X           Y           Z
 ---------------------------------------------------------------------
      1          6           0        0.983833   -0.032559    0.048858
      2         16           0        2.607130    0.099200    0.018798
      3          6           0        3.227323    0.736198   -1.346005
      4          1           0        0.570421   -0.457530    0.959745
      5          1           0        0.343807    0.278223   -0.775492
      6          1           0        2.615219    1.056484   -2.187742
      7          1           0        4.310457    0.823643   -1.365823
 ---------------------------------------------------------------------

 SCF Done:  E(UHF) =  -475.313237142     A.U. after    1 cycles

 Alpha  occ. eigenvalues --  -91.95029 -11.25443 -11.23308  -8.98739  -6.67598
 Alpha  occ. eigenvalues --   -6.67341  -6.67278  -1.11073  -0.93026  -0.75925
 Alpha  occ. eigenvalues --   -0.63560  -0.61851  -0.55506  -0.49541  -0.44908
 Alpha  occ. eigenvalues --   -0.31093
 Alpha virt. eigenvalues --    0.13145   0.19618   0.21716   0.22310   0.25852
 Alpha virt. eigenvalues --    0.32055   0.37772   0.47491   0.57494   0.57985
 Alpha virt. eigenvalues --    0.65445   0.67900   0.68544   0.73213   0.78711

  Beta  occ. eigenvalues --  -91.95029 -11.25442 -11.23309  -8.98739  -6.67598
  Beta  occ. eigenvalues --   -6.67341  -6.67278  -1.11074  -0.93025  -0.75925
  Beta  occ. eigenvalues --   -0.63560  -0.61852  -0.55506  -0.49542  -0.44908
  Beta  occ. eigenvalues --   -0.31091
  Beta virt. eigenvalues --    0.13144   0.19618   0.21716   0.22309   0.25852
  Beta virt. eigenvalues --    0.32055   0.37772   0.47491   0.57494   0.57985
  Beta virt. eigenvalues --    0.65446   0.67900   0.68543   0.73213   0.78713

 Mulliken charges and spin densities:
               1          2
     1  C   -0.218504   0.938148
     2  S    0.046639  -0.000050
     3  C   -0.218513  -0.938089
     4  H    0.102603  -0.071428
     5  H    0.092589  -0.072581
     6  H    0.092585   0.072578
     7  H    0.102601   0.071423
 Sum of Mulliken charges =   0.00000  -0.00000

 Dipole moment (field-independent basis, Debye):
    X=             -0.4469    Y=              0.2252    Z=             -0.5945  Tot=              0.7771
 Quadrupole moment (field-independent basis, Debye-Ang):
   XX=            -26.2791   YY=            -28.1679   ZZ=            -25.0455
   XY=              1.0343   XZ=             -1.8426   YZ=             -1.8019

 ESP charges:
               1
     1  C   -0.392939
     2  S    0.044539
     3  C   -0.393952
     4  H    0.179001
     5  H    0.191809
     6  H    0.192214
     7  H    0.179328
 Sum of ESP charges =  -0.00000

 Summary of Natural Population Analysis:

                                       Natural Population
                Natural  -----------------------------------------------
    Atom  No    Charge         Core      Valence    Rydberg      Total
 -----------------------------------------------------------------------
      C    1    0.09465      0.99973     1.89533    0.01028     2.90535
      S    2    0.23288      4.99924     2.72498    0.04289     7.76712
      C    3   -0.73804      0.99972     2.72676    0.01157     3.73804
      H    4    0.08628      0.00000     0.41273    0.00099     0.41372
      H    5    0.07804      0.00000     0.42065    0.00131     0.42196
      H    6    0.12004      0.00000     0.37852    0.00144     0.37996
      H    7    0.12615      0.00000     0.37271    0.00114     0.37385
 =======================================================================
   * Total *   -0.00000      6.99870     8.93168    0.06963    16.00000

 Normal termination of Gaussian 16 at Tue Jan  3 09:05:38 2023.
