 Gaussian 16, Revision C.01,

 ----------------------------------------------------------------------
 #p ub3lyp/gen stable=opt scf=(maxcycle=900,verytightlineq,xqc) integra
 l=grid=ultrafine symmetry=None density=current iop(99/18=-1) output=wf
 n
 ----------------------------------------------------------------------

 0003_q000_m01_k00_opt_uwb97xd_def2svpd/0003_q000_m01_k00_force_ub3lyp_
 def2qzvp stable-force
 ----------------------------------------------------------------------
 Symbolic Z-matrix:
 Charge =  0 Multiplicity = 1

 SCF Done:  E(UB3LYP) =  -476.811634852     A.U. after   11 cycles
 Normal termination of Gaussian 16 at Tue Jan  3 09:17:39 2023.
 Gaussian 16:  ES64L-G16RevC.01  3-Jul-2019

 ----------------------------------------------------------------------
 #p ub3lyp/chkbasis force guess=read geom=check scf=(maxcycle=900,veryt
 ightlineq,xqc) integral=grid=ultrafine symmetry=None density=current p
 op=(cm5,hlygat,mbs,npa) output=wfx
 ----------------------------------------------------------------------

 0003_q000_m01_k00_opt_uwb97xd_def2svpd/0003_q000_m01_k00_force_ub3lyp_
 def2qzvp stable-force
 ----------------------------------------------------------------------
 Structure from the checkpoint file:  "0003_q000_m01_k00_force_ub3lyp_def2qzvp.chk"
 Charge =  0 Multiplicity = 1

                          Input orientation:
 ---------------------------------------------------------------------
 Center     Atomic      Atomic             Coordinates (Angstroms)
 Number     Number       Type             X           Y           Z
 ---------------------------------------------------------------------
      1          6           0        0.983833   -0.032559    0.048858
      2         16           0        2.607130    0.099200    0.018798
      3          6           0        3.227323    0.736198   -1.346005
      4          1           0        0.570421   -0.457530    0.959745
      5          1           0        0.343807    0.278223   -0.775492
      6          1           0        2.615219    1.056484   -2.187742
      7          1           0        4.310457    0.823643   -1.365823
 ---------------------------------------------------------------------

 SCF Done:  E(UB3LYP) =  -476.811634852     A.U. after    1 cycles

 Alpha  occ. eigenvalues --  -88.91623 -10.18927 -10.18927  -7.99288  -5.95380
 Alpha  occ. eigenvalues --   -5.95359  -5.95046  -0.85205  -0.69982  -0.57504
 Alpha  occ. eigenvalues --   -0.47246  -0.46386  -0.40818  -0.36231  -0.33716
 Alpha  occ. eigenvalues --   -0.20472
 Alpha virt. eigenvalues --   -0.05991   0.02877   0.03060   0.05408   0.06367
 Alpha virt. eigenvalues --    0.08196   0.11115   0.11864   0.12224   0.16395
 Alpha virt. eigenvalues --    0.16869   0.17763   0.17818   0.20357   0.22477

  Beta  occ. eigenvalues --  -88.91623 -10.18927 -10.18927  -7.99288  -5.95380
  Beta  occ. eigenvalues --   -5.95359  -5.95046  -0.85205  -0.69982  -0.57504
  Beta  occ. eigenvalues --   -0.47246  -0.46386  -0.40818  -0.36231  -0.33716
  Beta  occ. eigenvalues --   -0.20472
  Beta virt. eigenvalues --   -0.05991   0.02877   0.03060   0.05408   0.06367
  Beta virt. eigenvalues --    0.08196   0.11115   0.11864   0.12224   0.16395
  Beta virt. eigenvalues --    0.16869   0.17763   0.17818   0.20357   0.22477

 Mulliken charges and spin densities:
               1          2
     1  C   -0.229298  -0.000000
     2  S    0.183669   0.000000
     3  C   -0.229265  -0.000000
     4  H    0.070370  -0.000000
     5  H    0.067072   0.000000
     6  H    0.067079  -0.000000
     7  H    0.070373   0.000000
 Sum of Mulliken charges =  -0.00000  -0.00000

 Dipole moment (field-independent basis, Debye):
    X=             -0.1544    Y=              0.0781    Z=             -0.2058  Tot=              0.2689
 Quadrupole moment (field-independent basis, Debye-Ang):
   XX=            -25.4741   YY=            -28.5940   ZZ=            -25.3388
   XY=              0.4390   XZ=             -0.3268   YZ=             -1.7594

 ESP charges:
               1
     1  C   -0.555237
     2  S    0.247329
     3  C   -0.557212
     4  H    0.199284
     5  H    0.232560
     6  H    0.233431
     7  H    0.199846
 Sum of ESP charges =  -0.00000

 Summary of Natural Population Analysis:

                                       Natural Population
                Natural  -----------------------------------------------
    Atom  No    Charge         Core      Valence    Rydberg      Total
 -----------------------------------------------------------------------
      C    1   -0.41861      0.99979     2.40327    0.01555     3.41861
      S    2    0.37959      4.99921     2.57505    0.04615     7.62041
      C    3   -0.41861      0.99979     2.40327    0.01555     3.41861
      H    4    0.11712      0.00000     0.38180    0.00108     0.38288
      H    5    0.11169      0.00000     0.38701    0.00130     0.38831
      H    6    0.11169      0.00000     0.38701    0.00130     0.38831
      H    7    0.11712      0.00000     0.38180    0.00108     0.38288
 =======================================================================
   * Total *   -0.00000      6.99879     8.91920    0.08201    16.00000

 Normal termination of Gaussian 16 at Tue Jan  3 09:19:54 2023.
