 Gaussian 16, Revision C.01,

 ----------------------------------------------------------------------
 #p ub3lyp/gen stable=opt scf=(maxcycle=900,verytightlineq,xqc) integra
 l=grid=ultrafine symmetry=None density=current iop(99/18=-1) output=wf
 n
 ----------------------------------------------------------------------

 0003_q000_m01_k00_opt_uwb97xd_def2svpd/0003_q000_m01_k00_force_ub3lyp_
 def2tzvp stable-force
 ----------------------------------------------------------------------
 Symbolic Z-matrix:
 Charge =  0 Multiplicity = 1

 SCF Done:  E(UB3LYP) =  -476.790852839     A.U. after   12 cycles
 Normal termination of Gaussian 16 at Tue Jan  3 09:06:24 2023.
 Gaussian 16:  ES64L-G16RevC.01  3-Jul-2019

 ----------------------------------------------------------------------
 #p ub3lyp/chkbasis force guess=read geom=check scf=(maxcycle=900,veryt
 ightlineq,xqc) integral=grid=ultrafine symmetry=None density=current p
 op=(cm5,hlygat,mbs,npa) output=wfx
 ----------------------------------------------------------------------

 0003_q000_m01_k00_opt_uwb97xd_def2svpd/0003_q000_m01_k00_force_ub3lyp_
 def2tzvp stable-force
 ----------------------------------------------------------------------
 Structure from the checkpoint file:  "0003_q000_m01_k00_force_ub3lyp_def2tzvp.chk"
 Charge =  0 Multiplicity = 1

                          Input orientation:
 ---------------------------------------------------------------------
 Center     Atomic      Atomic             Coordinates (Angstroms)
 Number     Number       Type             X           Y           Z
 ---------------------------------------------------------------------
      1          6           0        0.983833   -0.032559    0.048858
      2         16           0        2.607130    0.099200    0.018798
      3          6           0        3.227323    0.736198   -1.346005
      4          1           0        0.570421   -0.457530    0.959745
      5          1           0        0.343807    0.278223   -0.775492
      6          1           0        2.615219    1.056484   -2.187742
      7          1           0        4.310457    0.823643   -1.365823
 ---------------------------------------------------------------------

 SCF Done:  E(UB3LYP) =  -476.790852839     A.U. after    1 cycles

 Alpha  occ. eigenvalues --  -88.91810 -10.18572 -10.18571  -7.99066  -5.95156
 Alpha  occ. eigenvalues --   -5.95109  -5.94796  -0.85131  -0.69898  -0.57404
 Alpha  occ. eigenvalues --   -0.47166  -0.46297  -0.40747  -0.36121  -0.33612
 Alpha  occ. eigenvalues --   -0.20331
 Alpha virt. eigenvalues --   -0.05730   0.04843   0.05719   0.07226   0.09340
 Alpha virt. eigenvalues --    0.10624   0.14225   0.16153   0.20941   0.21228
 Alpha virt. eigenvalues --    0.21811   0.25603   0.26165   0.26308   0.29886

  Beta  occ. eigenvalues --  -88.91810 -10.18572 -10.18571  -7.99066  -5.95156
  Beta  occ. eigenvalues --   -5.95109  -5.94796  -0.85131  -0.69898  -0.57404
  Beta  occ. eigenvalues --   -0.47166  -0.46297  -0.40747  -0.36121  -0.33612
  Beta  occ. eigenvalues --   -0.20331
  Beta virt. eigenvalues --   -0.05730   0.04843   0.05719   0.07226   0.09340
  Beta virt. eigenvalues --    0.10624   0.14225   0.16153   0.20941   0.21228
  Beta virt. eigenvalues --    0.21811   0.25603   0.26165   0.26308   0.29886

 Mulliken charges and spin densities:
               1          2
     1  C   -0.383619  -0.000000
     2  S    0.212533   0.000000
     3  C   -0.383568   0.000000
     4  H    0.142621  -0.000000
     5  H    0.134704  -0.000000
     6  H    0.134706   0.000000
     7  H    0.142623  -0.000000
 Sum of Mulliken charges =  -0.00000   0.00000

 Dipole moment (field-independent basis, Debye):
    X=             -0.1277    Y=              0.0646    Z=             -0.1702  Tot=              0.2224
 Quadrupole moment (field-independent basis, Debye-Ang):
   XX=            -25.2115   YY=            -28.5379   ZZ=            -25.2424
   XY=              0.4214   XZ=             -0.2550   YZ=             -1.7780

 ESP charges:
               1
     1  C   -0.580656
     2  S    0.263375
     3  C   -0.582508
     4  H    0.209243
     5  H    0.239982
     6  H    0.240780
     7  H    0.209784
 Sum of ESP charges =  -0.00000

 Summary of Natural Population Analysis:

                                       Natural Population
                Natural  -----------------------------------------------
    Atom  No    Charge         Core      Valence    Rydberg      Total
 -----------------------------------------------------------------------
      C    1   -0.41465      0.99977     2.39973    0.01515     3.41465
      S    2    0.38137      4.99919     2.57600    0.04344     7.61863
      C    3   -0.41466      0.99977     2.39973    0.01515     3.41466
      H    4    0.11521      0.00000     0.38429    0.00050     0.38479
      H    5    0.10875      0.00000     0.39030    0.00095     0.39125
      H    6    0.10876      0.00000     0.39030    0.00095     0.39124
      H    7    0.11521      0.00000     0.38428    0.00050     0.38479
 =======================================================================
   * Total *    0.00000      6.99874     8.92463    0.07663    16.00000

 Normal termination of Gaussian 16 at Tue Jan  3 09:06:36 2023.
