 Gaussian 16, Revision C.01,

 ----------------------------------------------------------------------
 #p uwb97xd/gen stable=opt scf=(maxcycle=900,verytightlineq,xqc) integr
 al=grid=ultrafine symmetry=None density=current iop(99/18=-1) output=w
 fn
 ----------------------------------------------------------------------

 0003_q000_m01_k00_opt_uwb97xd_def2svpd/0003_q000_m01_k00_force_uwb97xd
 _def2tzvp stable-force
 ----------------------------------------------------------------------
 Symbolic Z-matrix:
 Charge =  0 Multiplicity = 1

 SCF Done:  E(UwB97XD) =  -476.734518357     A.U. after   14 cycles
 Normal termination of Gaussian 16 at Tue Jan  3 09:07:19 2023.
 Gaussian 16:  ES64L-G16RevC.01  3-Jul-2019

 ----------------------------------------------------------------------
 #p uwb97xd/chkbasis force guess=read geom=check scf=(maxcycle=900,very
 tightlineq,xqc) integral=grid=ultrafine symmetry=None density=current
 pop=(cm5,hlygat,mbs,npa) output=wfx
 ----------------------------------------------------------------------

 0003_q000_m01_k00_opt_uwb97xd_def2svpd/0003_q000_m01_k00_force_uwb97xd
 _def2tzvp stable-force
 ----------------------------------------------------------------------
 Structure from the checkpoint file:  "0003_q000_m01_k00_force_uwb97xd_def2tzvp.chk"
 Charge =  0 Multiplicity = 1

                          Input orientation:
 ---------------------------------------------------------------------
 Center     Atomic      Atomic             Coordinates (Angstroms)
 Number     Number       Type             X           Y           Z
 ---------------------------------------------------------------------
      1          6           0        0.983833   -0.032559    0.048858
      2         16           0        2.607130    0.099200    0.018798
      3          6           0        3.227323    0.736198   -1.346005
      4          1           0        0.570421   -0.457530    0.959745
      5          1           0        0.343807    0.278223   -0.775492
      6          1           0        2.615219    1.056484   -2.187742
      7          1           0        4.310457    0.823643   -1.365823
 ---------------------------------------------------------------------

 SCF Done:  E(UwB97XD) =  -476.734518357     A.U. after    1 cycles

 Alpha  occ. eigenvalues --  -89.08585 -10.29731 -10.29729  -8.11445  -6.06066
 Alpha  occ. eigenvalues --   -6.06024  -6.05688  -0.94949  -0.79388  -0.66391
 Alpha  occ. eigenvalues --   -0.55720  -0.54565  -0.48645  -0.44573  -0.41504
 Alpha  occ. eigenvalues --   -0.27348
 Alpha virt. eigenvalues --    0.01230   0.12685   0.13747   0.15087   0.17325
 Alpha virt. eigenvalues --    0.18726   0.21893   0.24534   0.29008   0.29388
 Alpha virt. eigenvalues --    0.30038   0.33635   0.33862   0.34333   0.38084

  Beta  occ. eigenvalues --  -89.08585 -10.29731 -10.29729  -8.11445  -6.06066
  Beta  occ. eigenvalues --   -6.06024  -6.05688  -0.94949  -0.79388  -0.66391
  Beta  occ. eigenvalues --   -0.55720  -0.54565  -0.48645  -0.44573  -0.41504
  Beta  occ. eigenvalues --   -0.27348
  Beta virt. eigenvalues --    0.01230   0.12685   0.13747   0.15087   0.17325
  Beta virt. eigenvalues --    0.18726   0.21893   0.24534   0.29008   0.29388
  Beta virt. eigenvalues --    0.30038   0.33635   0.33862   0.34333   0.38084

 Mulliken charges and spin densities:
               1          2
     1  C   -0.432435   0.000000
     2  S    0.238379   0.000000
     3  C   -0.432374   0.000000
     4  H    0.161477   0.000000
     5  H    0.151738   0.000000
     6  H    0.151738   0.000000
     7  H    0.161477   0.000000
 Sum of Mulliken charges =  -0.00000   0.00000

 Dipole moment (field-independent basis, Debye):
    X=             -0.1314    Y=              0.0665    Z=             -0.1752  Tot=              0.2289
 Quadrupole moment (field-independent basis, Debye-Ang):
   XX=            -24.8819   YY=            -28.3541   ZZ=            -24.9357
   XY=              0.4454   XZ=             -0.2799   YZ=             -1.8461

 ESP charges:
               1
     1  C   -0.605309
     2  S    0.273874
     3  C   -0.607089
     4  H    0.218896
     5  H    0.249723
     6  H    0.250484
     7  H    0.219421
 Sum of ESP charges =  -0.00000

 Summary of Natural Population Analysis:

                                       Natural Population
                Natural  -----------------------------------------------
    Atom  No    Charge         Core      Valence    Rydberg      Total
 -----------------------------------------------------------------------
      C    1   -0.42308      0.99978     2.40821    0.01509     3.42308
      S    2    0.38927      4.99920     2.56709    0.04444     7.61073
      C    3   -0.42308      0.99978     2.40821    0.01509     3.42308
      H    4    0.11703      0.00000     0.38251    0.00047     0.38297
      H    5    0.11141      0.00000     0.38776    0.00083     0.38859
      H    6    0.11142      0.00000     0.38776    0.00083     0.38858
      H    7    0.11703      0.00000     0.38250    0.00047     0.38297
 =======================================================================
   * Total *    0.00000      6.99876     8.92404    0.07720    16.00000

 Normal termination of Gaussian 16 at Tue Jan  3 09:07:36 2023.
