 Gaussian 16, Revision C.01,

 ----------------------------------------------------------------------
 #p ub3lyp/gen stable=opt scf=(maxcycle=900,verytightlineq,xqc) integra
 l=grid=ultrafine symmetry=None density=current iop(99/18=-1) output=wf
 n
 ----------------------------------------------------------------------

 0003_q000_m01_k00_opt_uwb97xd_def2svpd/0003_q000_m01_k00_force_ub3lyp_
 def2tzvpd stable-force
 ----------------------------------------------------------------------
 Symbolic Z-matrix:
 Charge =  0 Multiplicity = 1

 SCF Done:  E(UB3LYP) =  -476.791800188     A.U. after   11 cycles
 Normal termination of Gaussian 16 at Tue Jan  3 09:07:11 2023.
 Gaussian 16:  ES64L-G16RevC.01  3-Jul-2019

 ----------------------------------------------------------------------
 #p ub3lyp/chkbasis force guess=read geom=check scf=(maxcycle=900,veryt
 ightlineq,xqc) integral=grid=ultrafine symmetry=None density=current p
 op=(cm5,hlygat,mbs,npa) output=wfx
 ----------------------------------------------------------------------

 0003_q000_m01_k00_opt_uwb97xd_def2svpd/0003_q000_m01_k00_force_ub3lyp_
 def2tzvpd stable-force
 ----------------------------------------------------------------------
 Structure from the checkpoint file:  "0003_q000_m01_k00_force_ub3lyp_def2tzvpd.chk"
 Charge =  0 Multiplicity = 1

                          Input orientation:
 ---------------------------------------------------------------------
 Center     Atomic      Atomic             Coordinates (Angstroms)
 Number     Number       Type             X           Y           Z
 ---------------------------------------------------------------------
      1          6           0        0.983833   -0.032559    0.048858
      2         16           0        2.607130    0.099200    0.018798
      3          6           0        3.227323    0.736198   -1.346005
      4          1           0        0.570421   -0.457530    0.959745
      5          1           0        0.343807    0.278223   -0.775492
      6          1           0        2.615219    1.056484   -2.187742
      7          1           0        4.310457    0.823643   -1.365823
 ---------------------------------------------------------------------

 SCF Done:  E(UB3LYP) =  -476.791800188     A.U. after    1 cycles

 Alpha  occ. eigenvalues --  -88.91973 -10.18752 -10.18751  -7.99226  -5.95317
 Alpha  occ. eigenvalues --   -5.95269  -5.94959  -0.85258  -0.70015  -0.57520
 Alpha  occ. eigenvalues --   -0.47267  -0.46421  -0.40846  -0.36241  -0.33726
 Alpha  occ. eigenvalues --   -0.20465
 Alpha virt. eigenvalues --   -0.05982   0.00751   0.01368   0.02243   0.03918
 Alpha virt. eigenvalues --    0.05713   0.06279   0.07419   0.07728   0.10444
 Alpha virt. eigenvalues --    0.13044   0.13321   0.13707   0.14852   0.16374

  Beta  occ. eigenvalues --  -88.91973 -10.18752 -10.18751  -7.99226  -5.95317
  Beta  occ. eigenvalues --   -5.95269  -5.94959  -0.85258  -0.70015  -0.57520
  Beta  occ. eigenvalues --   -0.47267  -0.46421  -0.40846  -0.36241  -0.33726
  Beta  occ. eigenvalues --   -0.20465
  Beta virt. eigenvalues --   -0.05982   0.00751   0.01368   0.02243   0.03918
  Beta virt. eigenvalues --    0.05713   0.06279   0.07419   0.07728   0.10444
  Beta virt. eigenvalues --    0.13044   0.13321   0.13707   0.14852   0.16374

 Mulliken charges and spin densities:
               1          2
     1  C   -0.503531  -0.000000
     2  S    0.112504   0.000000
     3  C   -0.503440  -0.000000
     4  H    0.219152  -0.000000
     5  H    0.228084  -0.000000
     6  H    0.228077   0.000000
     7  H    0.219153  -0.000000
 Sum of Mulliken charges =  -0.00000   0.00000

 Dipole moment (field-independent basis, Debye):
    X=             -0.1769    Y=              0.0894    Z=             -0.2358  Tot=              0.3080
 Quadrupole moment (field-independent basis, Debye-Ang):
   XX=            -25.6072   YY=            -28.6230   ZZ=            -25.3407
   XY=              0.4566   XZ=             -0.3793   YZ=             -1.7758

 ESP charges:
               1
     1  C   -0.555862
     2  S    0.244778
     3  C   -0.557864
     4  H    0.198949
     5  H    0.234797
     6  H    0.235710
     7  H    0.199491
 Sum of ESP charges =  -0.00000

 Summary of Natural Population Analysis:

                                       Natural Population
                Natural  -----------------------------------------------
    Atom  No    Charge         Core      Valence    Rydberg      Total
 -----------------------------------------------------------------------
      C    1   -0.40986      0.99978     2.39628    0.01380     3.40986
      S    2    0.37474      4.99919     2.57671    0.04936     7.62526
      C    3   -0.40987      0.99978     2.39628    0.01380     3.40987
      H    4    0.11432      0.00000     0.38305    0.00263     0.38568
      H    5    0.10818      0.00000     0.38965    0.00218     0.39182
      H    6    0.10818      0.00000     0.38965    0.00218     0.39182
      H    7    0.11432      0.00000     0.38305    0.00263     0.38568
 =======================================================================
   * Total *   -0.00000      6.99875     8.91468    0.08657    16.00000

 Normal termination of Gaussian 16 at Tue Jan  3 09:07:30 2023.
