 Gaussian 16, Revision C.01,

 ----------------------------------------------------------------------
 #p ub3lyp/gen stable=opt scf=(maxcycle=900,verytightlineq,xqc) integra
 l=grid=ultrafine symmetry=None density=current iop(99/18=-1) output=wf
 n
 ----------------------------------------------------------------------

 0003_q000_m01_k00_opt_uwb97xd_def2svpd/0003_q000_m01_k00_force_ub3lyp_
 def2svpd stable-force
 ----------------------------------------------------------------------
 Symbolic Z-matrix:
 Charge =  0 Multiplicity = 1

 SCF Done:  E(UB3LYP) =  -476.564239428     A.U. after   10 cycles
 Normal termination of Gaussian 16 at Tue Jan  3 09:06:01 2023.
 Gaussian 16:  ES64L-G16RevC.01  3-Jul-2019

 ----------------------------------------------------------------------
 #p ub3lyp/chkbasis force guess=read geom=check scf=(maxcycle=900,veryt
 ightlineq,xqc) integral=grid=ultrafine symmetry=None density=current p
 op=(cm5,hlygat,mbs,npa) output=wfx
 ----------------------------------------------------------------------

 0003_q000_m01_k00_opt_uwb97xd_def2svpd/0003_q000_m01_k00_force_ub3lyp_
 def2svpd stable-force
 ----------------------------------------------------------------------
 Structure from the checkpoint file:  "0003_q000_m01_k00_force_ub3lyp_def2svpd.chk"
 Charge =  0 Multiplicity = 1

                          Input orientation:
 ---------------------------------------------------------------------
 Center     Atomic      Atomic             Coordinates (Angstroms)
 Number     Number       Type             X           Y           Z
 ---------------------------------------------------------------------
      1          6           0        0.983833   -0.032559    0.048858
      2         16           0        2.607130    0.099200    0.018798
      3          6           0        3.227323    0.736198   -1.346005
      4          1           0        0.570421   -0.457530    0.959745
      5          1           0        0.343807    0.278223   -0.775492
      6          1           0        2.615219    1.056484   -2.187742
      7          1           0        4.310457    0.823643   -1.365823
 ---------------------------------------------------------------------

 SCF Done:  E(UB3LYP) =  -476.564239428     A.U. after    1 cycles

 Alpha  occ. eigenvalues --  -88.92417 -10.20158 -10.20151  -8.00992  -5.97728
 Alpha  occ. eigenvalues --   -5.97560  -5.97278  -0.85599  -0.69686  -0.57165
 Alpha  occ. eigenvalues --   -0.47390  -0.46641  -0.40938  -0.36547  -0.33846
 Alpha  occ. eigenvalues --   -0.20402
 Alpha virt. eigenvalues --   -0.05944   0.02097   0.02742   0.03857   0.06163
 Alpha virt. eigenvalues --    0.06820   0.07977   0.08303   0.09673   0.14172
 Alpha virt. eigenvalues --    0.15813   0.17147   0.17679   0.19050   0.19946

  Beta  occ. eigenvalues --  -88.92417 -10.20158 -10.20151  -8.00992  -5.97728
  Beta  occ. eigenvalues --   -5.97560  -5.97278  -0.85599  -0.69686  -0.57165
  Beta  occ. eigenvalues --   -0.47390  -0.46641  -0.40938  -0.36547  -0.33846
  Beta  occ. eigenvalues --   -0.20402
  Beta virt. eigenvalues --   -0.05944   0.02097   0.02742   0.03857   0.06163
  Beta virt. eigenvalues --    0.06820   0.07977   0.08303   0.09673   0.14172
  Beta virt. eigenvalues --    0.15813   0.17147   0.17679   0.19050   0.19946

 Mulliken charges and spin densities:
               1          2
     1  C    0.609136  -0.000000
     2  S   -0.112785   0.000000
     3  C    0.609142  -0.000000
     4  H   -0.321998  -0.000000
     5  H   -0.230784   0.000000
     6  H   -0.230723   0.000000
     7  H   -0.321987   0.000000
 Sum of Mulliken charges =   0.00000   0.00000

 Dipole moment (field-independent basis, Debye):
    X=             -0.1857    Y=              0.0938    Z=             -0.2475  Tot=              0.3233
 Quadrupole moment (field-independent basis, Debye-Ang):
   XX=            -25.7465   YY=            -28.6076   ZZ=            -25.4359
   XY=              0.4723   XZ=             -0.4435   YZ=             -1.7217

 ESP charges:
               1
     1  C   -0.538022
     2  S    0.230112
     3  C   -0.539203
     4  H    0.195015
     5  H    0.228099
     6  H    0.228736
     7  H    0.195264
 Sum of ESP charges =  -0.00000

 Summary of Natural Population Analysis:

                                       Natural Population
                Natural  -----------------------------------------------
    Atom  No    Charge         Core      Valence    Rydberg      Total
 -----------------------------------------------------------------------
      C    1   -0.41736      0.99978     2.40483    0.01274     3.41736
      S    2    0.35500      4.99911     2.60435    0.04155     7.64500
      C    3   -0.41736      0.99978     2.40483    0.01274     3.41736
      H    4    0.12387      0.00000     0.37390    0.00224     0.37613
      H    5    0.11599      0.00000     0.38226    0.00175     0.38401
      H    6    0.11599      0.00000     0.38226    0.00175     0.38401
      H    7    0.12387      0.00000     0.37389    0.00224     0.37613
 =======================================================================
   * Total *   -0.00000      6.99868     8.92631    0.07501    16.00000

 Normal termination of Gaussian 16 at Tue Jan  3 09:06:09 2023.
