 Gaussian 16, Revision C.01,

 ----------------------------------------------------------------------
 #p uhf/gen stable=opt scf=(maxcycle=900,verytightlineq,xqc) integral=g
 rid=ultrafine symmetry=None density=current iop(99/18=-1) output=wfn
 ----------------------------------------------------------------------

 0003_q000_m01_k00_opt_uwb97xd_def2svpd/0003_q000_m01_k00_force_uhf_def
 2qzvp stable-force
 ----------------------------------------------------------------------
 Symbolic Z-matrix:
 Charge =  0 Multiplicity = 1

 SCF Done:  E(UHF) =  -475.546394324     A.U. after   12 cycles
 SCF Done:  E(UHF) =  -475.564454600     a.u. after    9 cycles
 Normal termination of Gaussian 16 at Tue Jan  3 09:41:32 2023.
 Gaussian 16:  ES64L-G16RevC.01  3-Jul-2019

 ----------------------------------------------------------------------
 #p uhf/chkbasis force guess=read geom=check scf=(maxcycle=900,verytigh
 tlineq,xqc) integral=grid=ultrafine symmetry=None density=current pop=
 (cm5,hlygat,mbs,npa) output=wfx
 ----------------------------------------------------------------------

 0003_q000_m01_k00_opt_uwb97xd_def2svpd/0003_q000_m01_k00_force_uhf_def
 2qzvp stable-force
 ----------------------------------------------------------------------
 Structure from the checkpoint file:  "0003_q000_m01_k00_force_uhf_def2qzvp.chk"
 Charge =  0 Multiplicity = 1

                          Input orientation:
 ---------------------------------------------------------------------
 Center     Atomic      Atomic             Coordinates (Angstroms)
 Number     Number       Type             X           Y           Z
 ---------------------------------------------------------------------
      1          6           0        0.983833   -0.032559    0.048858
      2         16           0        2.607130    0.099200    0.018798
      3          6           0        3.227323    0.736198   -1.346005
      4          1           0        0.570421   -0.457530    0.959745
      5          1           0        0.343807    0.278223   -0.775492
      6          1           0        2.615219    1.056484   -2.187742
      7          1           0        4.310457    0.823643   -1.365823
 ---------------------------------------------------------------------

 SCF Done:  E(UHF) =  -475.564454600     A.U. after    1 cycles

 Alpha  occ. eigenvalues --  -91.98846 -11.25080 -11.23180  -8.98938  -6.67159
 Alpha  occ. eigenvalues --   -6.67016  -6.67011  -1.11272  -0.93953  -0.76564
 Alpha  occ. eigenvalues --   -0.63476  -0.61833  -0.55497  -0.49358  -0.45196
 Alpha  occ. eigenvalues --   -0.31283
 Alpha virt. eigenvalues --    0.10067   0.11608   0.12752   0.14246   0.16714
 Alpha virt. eigenvalues --    0.17469   0.21655   0.21985   0.24486   0.26496
 Alpha virt. eigenvalues --    0.27856   0.28895   0.31241   0.33252   0.34666

  Beta  occ. eigenvalues --  -91.98846 -11.25081 -11.23179  -8.98938  -6.67159
  Beta  occ. eigenvalues --   -6.67015  -6.67011  -1.11272  -0.93954  -0.76563
  Beta  occ. eigenvalues --   -0.63476  -0.61833  -0.55497  -0.49357  -0.45196
  Beta  occ. eigenvalues --   -0.31285
  Beta virt. eigenvalues --    0.10067   0.11608   0.12752   0.14246   0.16714
  Beta virt. eigenvalues --    0.17469   0.21655   0.21985   0.24486   0.26496
  Beta virt. eigenvalues --    0.27856   0.28895   0.31241   0.33252   0.34665

 Mulliken charges and spin densities:
               1          2
     1  C   -0.301039  -0.923600
     2  S    0.129169   0.000053
     3  C   -0.301034   0.923535
     4  H    0.122752   0.076788
     5  H    0.113704   0.086582
     6  H    0.113700  -0.086575
     7  H    0.122748  -0.076783
 Sum of Mulliken charges =  -0.00000   0.00000

 Dipole moment (field-independent basis, Debye):
    X=             -0.4795    Y=              0.2416    Z=             -0.6380  Tot=              0.8339
 Quadrupole moment (field-independent basis, Debye-Ang):
   XX=            -26.3417   YY=            -28.5180   ZZ=            -25.0145
   XY=              1.1017   XZ=             -1.9277   YZ=             -2.0104

 ESP charges:
               1
     1  C   -0.435320
     2  S    0.063298
     3  C   -0.436567
     4  H    0.192853
     5  H    0.210979
     6  H    0.211591
     7  H    0.193165
 Sum of ESP charges =  -0.00000

 Summary of Natural Population Analysis:

                                       Natural Population
                Natural  -----------------------------------------------
    Atom  No    Charge         Core      Valence    Rydberg      Total
 -----------------------------------------------------------------------
      C    1   -0.74857      0.99980     2.73194    0.01683     3.74857
      S    2    0.28271      4.99928     2.66747    0.05053     7.71729
      C    3    0.05851      0.99978     1.92227    0.01944     2.94149
      H    4    0.12379      0.00000     0.37474    0.00147     0.37621
      H    5    0.12064      0.00000     0.37814    0.00122     0.37936
      H    6    0.07882      0.00000     0.42019    0.00099     0.42118
      H    7    0.08410      0.00000     0.41446    0.00144     0.41590
 =======================================================================
   * Total *    0.00000      6.99886     8.90921    0.09192    16.00000

 Normal termination of Gaussian 16 at Tue Jan  3 09:43:38 2023.
