 Gaussian 16, Revision C.01,

 ----------------------------------------------------------------------
 #p uhf/gen stable=opt scf=(maxcycle=900,verytightlineq,xqc) integral=g
 rid=ultrafine symmetry=None density=current iop(99/18=-1) output=wfn
 ----------------------------------------------------------------------

 0003_q000_m01_k00_opt_uwb97xd_def2svpd/0003_q000_m01_k00_force_uhf_def
 2tzvp stable-force
 ----------------------------------------------------------------------
 Symbolic Z-matrix:
 Charge =  0 Multiplicity = 1

 SCF Done:  E(UHF) =  -475.529409988     A.U. after   12 cycles
 SCF Done:  E(UHF) =  -475.547519585     a.u. after    9 cycles
 Normal termination of Gaussian 16 at Tue Jan  3 09:05:53 2023.
 Gaussian 16:  ES64L-G16RevC.01  3-Jul-2019

 ----------------------------------------------------------------------
 #p uhf/chkbasis force guess=read geom=check scf=(maxcycle=900,verytigh
 tlineq,xqc) integral=grid=ultrafine symmetry=None density=current pop=
 (cm5,hlygat,mbs,npa) output=wfx
 ----------------------------------------------------------------------

 0003_q000_m01_k00_opt_uwb97xd_def2svpd/0003_q000_m01_k00_force_uhf_def
 2tzvp stable-force
 ----------------------------------------------------------------------
 Structure from the checkpoint file:  "0003_q000_m01_k00_force_uhf_def2tzvp.chk"
 Charge =  0 Multiplicity = 1

                          Input orientation:
 ---------------------------------------------------------------------
 Center     Atomic      Atomic             Coordinates (Angstroms)
 Number     Number       Type             X           Y           Z
 ---------------------------------------------------------------------
      1          6           0        0.983833   -0.032559    0.048858
      2         16           0        2.607130    0.099200    0.018798
      3          6           0        3.227323    0.736198   -1.346005
      4          1           0        0.570421   -0.457530    0.959745
      5          1           0        0.343807    0.278223   -0.775492
      6          1           0        2.615219    1.056484   -2.187742
      7          1           0        4.310457    0.823643   -1.365823
 ---------------------------------------------------------------------

 SCF Done:  E(UHF) =  -475.547519585     A.U. after    1 cycles

 Alpha  occ. eigenvalues --  -91.98515 -11.25007 -11.23068  -8.98905  -6.67126
 Alpha  occ. eigenvalues --   -6.66968  -6.66957  -1.11232  -0.93900  -0.76498
 Alpha  occ. eigenvalues --   -0.63428  -0.61777  -0.55455  -0.49285  -0.45118
 Alpha  occ. eigenvalues --   -0.31200
 Alpha virt. eigenvalues --    0.11126   0.16717   0.17976   0.18948   0.21951
 Alpha virt. eigenvalues --    0.22253   0.27438   0.29457   0.33690   0.33731
 Alpha virt. eigenvalues --    0.35832   0.38890   0.39497   0.40683   0.45942

  Beta  occ. eigenvalues --  -91.98515 -11.25006 -11.23069  -8.98905  -6.67126
  Beta  occ. eigenvalues --   -6.66969  -6.66957  -1.11233  -0.93899  -0.76498
  Beta  occ. eigenvalues --   -0.63428  -0.61777  -0.55455  -0.49286  -0.45118
  Beta  occ. eigenvalues --   -0.31198
  Beta virt. eigenvalues --    0.11125   0.16717   0.17976   0.18948   0.21952
  Beta virt. eigenvalues --    0.22253   0.27438   0.29457   0.33690   0.33731
  Beta virt. eigenvalues --    0.35832   0.38890   0.39498   0.40683   0.45941

 Mulliken charges and spin densities:
               1          2
     1  C   -0.409083   0.886464
     2  S    0.215815  -0.000057
     3  C   -0.409083  -0.886398
     4  H    0.154629  -0.062883
     5  H    0.146549  -0.064722
     6  H    0.146545   0.064718
     7  H    0.154627   0.062879
 Sum of Mulliken charges =  -0.00000   0.00000

 Dipole moment (field-independent basis, Debye):
    X=             -0.4595    Y=              0.2316    Z=             -0.6114  Tot=              0.7991
 Quadrupole moment (field-independent basis, Debye-Ang):
   XX=            -26.1757   YY=            -28.4765   ZZ=            -24.9596
   XY=              1.0816   XZ=             -1.8639   YZ=             -2.0142

 ESP charges:
               1
     1  C   -0.451543
     2  S    0.074453
     3  C   -0.452762
     4  H    0.198862
     5  H    0.215615
     6  H    0.216188
     7  H    0.199186
 Sum of ESP charges =  -0.00000

 Summary of Natural Population Analysis:

                                       Natural Population
                Natural  -----------------------------------------------
    Atom  No    Charge         Core      Valence    Rydberg      Total
 -----------------------------------------------------------------------
      C    1    0.05989      0.99979     1.92148    0.01885     2.94011
      S    2    0.28790      4.99930     2.66485    0.04795     7.71210
      C    3   -0.74820      0.99980     2.73129    0.01711     3.74820
      H    4    0.08344      0.00000     0.41611    0.00045     0.41656
      H    5    0.07580      0.00000     0.42337    0.00083     0.42420
      H    6    0.11796      0.00000     0.38116    0.00088     0.38204
      H    7    0.12321      0.00000     0.37629    0.00050     0.37679
 =======================================================================
   * Total *   -0.00000      6.99888     8.91455    0.08657    16.00000

 Normal termination of Gaussian 16 at Tue Jan  3 09:06:02 2023.
