 Gaussian 16, Revision C.01,

 ----------------------------------------------------------------------
 #p uwb97xd/gen stable=opt scf=(maxcycle=900,verytightlineq,xqc) integr
 al=grid=ultrafine symmetry=None density=current iop(99/18=-1) output=w
 fn
 ----------------------------------------------------------------------

 0003_q000_m01_k00_opt_uwb97xd_def2svpd/0003_q000_m01_k00_force_uwb97xd
 _def2svp stable-force
 ----------------------------------------------------------------------
 Symbolic Z-matrix:
 Charge =  0 Multiplicity = 1

 SCF Done:  E(UwB97XD) =  -476.499301874     A.U. after   15 cycles
 Normal termination of Gaussian 16 at Tue Jan  3 09:06:14 2023.
 Gaussian 16:  ES64L-G16RevC.01  3-Jul-2019

 ----------------------------------------------------------------------
 #p uwb97xd/chkbasis force guess=read geom=check scf=(maxcycle=900,very
 tightlineq,xqc) integral=grid=ultrafine symmetry=None density=current
 pop=(cm5,hlygat,mbs,npa) output=wfx
 ----------------------------------------------------------------------

 0003_q000_m01_k00_opt_uwb97xd_def2svpd/0003_q000_m01_k00_force_uwb97xd
 _def2svp stable-force
 ----------------------------------------------------------------------
 Structure from the checkpoint file:  "0003_q000_m01_k00_force_uwb97xd_def2svp.chk"
 Charge =  0 Multiplicity = 1

                          Input orientation:
 ---------------------------------------------------------------------
 Center     Atomic      Atomic             Coordinates (Angstroms)
 Number     Number       Type             X           Y           Z
 ---------------------------------------------------------------------
      1          6           0        0.983833   -0.032559    0.048858
      2         16           0        2.607130    0.099200    0.018798
      3          6           0        3.227323    0.736198   -1.346005
      4          1           0        0.570421   -0.457530    0.959745
      5          1           0        0.343807    0.278223   -0.775492
      6          1           0        2.615219    1.056484   -2.187742
      7          1           0        4.310457    0.823643   -1.365823
 ---------------------------------------------------------------------

 SCF Done:  E(UwB97XD) =  -476.499301874     A.U. after    1 cycles

 Alpha  occ. eigenvalues --  -89.07791 -10.30784 -10.30780  -8.12603  -6.07835
 Alpha  occ. eigenvalues --   -6.07678  -6.07373  -0.95152  -0.78778  -0.65695
 Alpha  occ. eigenvalues --   -0.55579  -0.54482  -0.48495  -0.44751  -0.41417
 Alpha  occ. eigenvalues --   -0.26855
 Alpha virt. eigenvalues --    0.01819   0.15592   0.15938   0.17104   0.21229
 Alpha virt. eigenvalues --    0.23282   0.29419   0.38492   0.47542   0.48833
 Alpha virt. eigenvalues --    0.55790   0.55952   0.58068   0.61805   0.62615

  Beta  occ. eigenvalues --  -89.07791 -10.30784 -10.30780  -8.12603  -6.07835
  Beta  occ. eigenvalues --   -6.07678  -6.07373  -0.95152  -0.78778  -0.65695
  Beta  occ. eigenvalues --   -0.55579  -0.54482  -0.48495  -0.44751  -0.41417
  Beta  occ. eigenvalues --   -0.26855
  Beta virt. eigenvalues --    0.01819   0.15592   0.15938   0.17104   0.21229
  Beta virt. eigenvalues --    0.23282   0.29419   0.38492   0.47542   0.48833
  Beta virt. eigenvalues --    0.55790   0.55952   0.58068   0.61805   0.62615

 Mulliken charges and spin densities:
               1          2
     1  C   -0.307086   0.000000
     2  S    0.226213   0.000000
     3  C   -0.307073   0.000000
     4  H    0.099177   0.000000
     5  H    0.094794   0.000000
     6  H    0.094796   0.000000
     7  H    0.099180   0.000000
 Sum of Mulliken charges =  -0.00000   0.00000

 Dipole moment (field-independent basis, Debye):
    X=             -0.0653    Y=              0.0333    Z=             -0.0873  Tot=              0.1140
 Quadrupole moment (field-independent basis, Debye-Ang):
   XX=            -24.7674   YY=            -27.9195   ZZ=            -25.0411
   XY=              0.3172   XZ=             -0.0737   YZ=             -1.5448

 ESP charges:
               1
     1  C   -0.543354
     2  S    0.256025
     3  C   -0.544845
     4  H    0.195838
     5  H    0.219720
     6  H    0.220265
     7  H    0.196351
 Sum of ESP charges =  -0.00000

 Summary of Natural Population Analysis:

                                       Natural Population
                Natural  -----------------------------------------------
    Atom  No    Charge         Core      Valence    Rydberg      Total
 -----------------------------------------------------------------------
      C    1   -0.40347      0.99969     2.39330    0.01047     3.40347
      S    2    0.34467      4.99914     2.61639    0.03980     7.65533
      C    3   -0.40347      0.99969     2.39330    0.01048     3.40347
      H    4    0.11842      0.00000     0.38077    0.00081     0.38158
      H    5    0.11271      0.00000     0.38620    0.00109     0.38729
      H    6    0.11271      0.00000     0.38620    0.00109     0.38729
      H    7    0.11842      0.00000     0.38076    0.00081     0.38158
 =======================================================================
   * Total *   -0.00000      6.99853     8.93693    0.06454    16.00000

 Normal termination of Gaussian 16 at Tue Jan  3 09:06:21 2023.
