 Gaussian 16, Revision C.01,

 ----------------------------------------------------------------------
 #p uwb97xd/gen stable=opt scf=(maxcycle=900,verytightlineq,xqc) integr
 al=grid=ultrafine symmetry=None density=current iop(99/18=-1) output=w
 fn
 ----------------------------------------------------------------------

 0004_q000_m01_k00_opt_uwb97xd_def2svpd/0004_q000_m01_k00_force_uwb97xd
 _def2tzvpd stable-force
 ----------------------------------------------------------------------
 Symbolic Z-matrix:
 Charge =  0 Multiplicity = 1

 SCF Done:  E(UwB97XD) =  -492.793785434     A.U. after   13 cycles
 Normal termination of Gaussian 16 at Tue Jan  3 09:09:06 2023.
 Gaussian 16:  ES64L-G16RevC.01  3-Jul-2019

 ----------------------------------------------------------------------
 #p uwb97xd/chkbasis force guess=read geom=check scf=(maxcycle=900,very
 tightlineq,xqc) integral=grid=ultrafine symmetry=None density=current
 pop=(cm5,hlygat,mbs,npa) output=wfx
 ----------------------------------------------------------------------

 0004_q000_m01_k00_opt_uwb97xd_def2svpd/0004_q000_m01_k00_force_uwb97xd
 _def2tzvpd stable-force
 ----------------------------------------------------------------------
 Structure from the checkpoint file:  "0004_q000_m01_k00_force_uwb97xd_def2tzvpd.chk"
 Charge =  0 Multiplicity = 1

                          Input orientation:
 ---------------------------------------------------------------------
 Center     Atomic      Atomic             Coordinates (Angstroms)
 Number     Number       Type             X           Y           Z
 ---------------------------------------------------------------------
      1          6           0        0.888294    0.142235    0.108926
      2         16           0        2.506724    0.104170    0.044890
      3          7           0        3.303240    1.229897    0.770762
      4          1           0        0.375274   -0.665334   -0.413229
      5          1           0        0.324276    0.914865    0.633860
      6          1           0        2.713842    1.920118    1.241851
 ---------------------------------------------------------------------

 SCF Done:  E(UwB97XD) =  -492.793785434     A.U. after    1 cycles

 Alpha  occ. eigenvalues --  -89.11409 -14.43145 -10.32195  -8.13872  -6.08555
 Alpha  occ. eigenvalues --   -6.08498  -6.08082  -1.02836  -0.86402  -0.70152
 Alpha  occ. eigenvalues --   -0.58388  -0.55855  -0.47473  -0.44027  -0.38100
 Alpha  occ. eigenvalues --   -0.31605
 Alpha virt. eigenvalues --   -0.00490   0.06256   0.06510   0.07478   0.08385
 Alpha virt. eigenvalues --    0.11117   0.12533   0.13889   0.16243   0.18976
 Alpha virt. eigenvalues --    0.19698   0.19701   0.23293   0.23829   0.25536

  Beta  occ. eigenvalues --  -89.11409 -14.43145 -10.32195  -8.13872  -6.08555
  Beta  occ. eigenvalues --   -6.08498  -6.08082  -1.02836  -0.86402  -0.70152
  Beta  occ. eigenvalues --   -0.58388  -0.55855  -0.47473  -0.44027  -0.38100
  Beta  occ. eigenvalues --   -0.31605
  Beta virt. eigenvalues --   -0.00490   0.06256   0.06510   0.07478   0.08385
  Beta virt. eigenvalues --    0.11117   0.12533   0.13889   0.16243   0.18976
  Beta virt. eigenvalues --    0.19698   0.19701   0.23293   0.23829   0.25536

 Mulliken charges and spin densities:
               1          2
     1  C   -0.590734   0.000000
     2  S    0.254463   0.000000
     3  N   -0.521408   0.000000
     4  H    0.328344   0.000000
     5  H    0.300425   0.000000
     6  H    0.228910   0.000000
 Sum of Mulliken charges =  -0.00000   0.00000

 Dipole moment (field-independent basis, Debye):
    X=             -2.6011    Y=             -0.2468    Z=             -0.1007  Tot=              2.6147
 Quadrupole moment (field-independent basis, Debye-Ang):
   XX=            -38.8354   YY=            -24.2419   ZZ=            -25.7252
   XY=             -3.1835   XZ=             -1.9170   YZ=              1.9181

 ESP charges:
               1
     1  C   -0.518106
     2  S    0.355384
     3  N   -0.622036
     4  H    0.201001
     5  H    0.234851
     6  H    0.348906
 Sum of ESP charges =   0.00000

 Summary of Natural Population Analysis:

                                       Natural Population
                Natural  -----------------------------------------------
    Atom  No    Charge         Core      Valence    Rydberg      Total
 -----------------------------------------------------------------------
      C    1   -0.40315      0.99978     2.38897    0.01440     3.40315
      S    2    0.49695      4.99928     2.44248    0.06128     7.50305
      N    3   -0.49964      0.99986     2.97390    0.02588     3.99964
      H    4    0.11789      0.00000     0.37991    0.00220     0.38211
      H    5    0.11252      0.00000     0.38575    0.00173     0.38748
      H    6    0.17543      0.00000     0.32302    0.00155     0.32457
 =======================================================================
   * Total *    0.00000      6.99893     8.89403    0.10704    16.00000

 Normal termination of Gaussian 16 at Tue Jan  3 09:09:30 2023.
