 Gaussian 16, Revision C.01,

 ----------------------------------------------------------------------
 #p uwb97xd/gen stable=opt scf=(maxcycle=900,verytightlineq,xqc) integr
 al=grid=ultrafine symmetry=None density=current iop(99/18=-1) output=w
 fn
 ----------------------------------------------------------------------

 0004_q000_m01_k00_opt_uwb97xd_def2svpd/0004_q000_m01_k00_force_uwb97xd
 _def2qzvpd stable-force
 ----------------------------------------------------------------------
 Symbolic Z-matrix:
 Charge =  0 Multiplicity = 1

 SCF Done:  E(UwB97XD) =  -492.813604932     A.U. after   12 cycles
 Normal termination of Gaussian 16 at Tue Jan  3 09:27:45 2023.
 Gaussian 16:  ES64L-G16RevC.01  3-Jul-2019

 ----------------------------------------------------------------------
 #p uwb97xd/chkbasis force guess=read geom=check scf=(maxcycle=900,very
 tightlineq,xqc) integral=grid=ultrafine symmetry=None density=current
 pop=(cm5,hlygat,mbs,npa) output=wfx
 ----------------------------------------------------------------------

 0004_q000_m01_k00_opt_uwb97xd_def2svpd/0004_q000_m01_k00_force_uwb97xd
 _def2qzvpd stable-force
 ----------------------------------------------------------------------
 Structure from the checkpoint file:  "0004_q000_m01_k00_force_uwb97xd_def2qzvpd.chk"
 Charge =  0 Multiplicity = 1

                          Input orientation:
 ---------------------------------------------------------------------
 Center     Atomic      Atomic             Coordinates (Angstroms)
 Number     Number       Type             X           Y           Z
 ---------------------------------------------------------------------
      1          6           0        0.888294    0.142235    0.108926
      2         16           0        2.506724    0.104170    0.044890
      3          7           0        3.303240    1.229897    0.770762
      4          1           0        0.375274   -0.665334   -0.413229
      5          1           0        0.324276    0.914865    0.633860
      6          1           0        2.713842    1.920118    1.241851
 ---------------------------------------------------------------------

 SCF Done:  E(UwB97XD) =  -492.813604932     A.U. after    1 cycles

 Alpha  occ. eigenvalues --  -89.11259 -14.43224 -10.32389  -8.13962  -6.08634
 Alpha  occ. eigenvalues --   -6.08614  -6.08196  -1.02776  -0.86372  -0.70142
 Alpha  occ. eigenvalues --   -0.58359  -0.55838  -0.47479  -0.44026  -0.38112
 Alpha  occ. eigenvalues --   -0.31619
 Alpha virt. eigenvalues --   -0.00555   0.05196   0.05425   0.06269   0.06822
 Alpha virt. eigenvalues --    0.10345   0.11004   0.12760   0.15056   0.17249
 Alpha virt. eigenvalues --    0.17475   0.18175   0.20322   0.20596   0.21282

  Beta  occ. eigenvalues --  -89.11259 -14.43224 -10.32389  -8.13962  -6.08634
  Beta  occ. eigenvalues --   -6.08614  -6.08196  -1.02776  -0.86372  -0.70142
  Beta  occ. eigenvalues --   -0.58359  -0.55838  -0.47479  -0.44026  -0.38112
  Beta  occ. eigenvalues --   -0.31619
  Beta virt. eigenvalues --   -0.00555   0.05196   0.05425   0.06269   0.06822
  Beta virt. eigenvalues --    0.10345   0.11004   0.12760   0.15056   0.17249
  Beta virt. eigenvalues --    0.17475   0.18175   0.20322   0.20596   0.21282

 Mulliken charges and spin densities:
               1          2
     1  C   -0.292997  -0.000000
     2  S    0.252670  -0.000000
     3  N   -0.452364   0.000000
     4  H    0.228414   0.000000
     5  H    0.133808  -0.000000
     6  H    0.130469   0.000000
 Sum of Mulliken charges =   0.00000   0.00000

 Dipole moment (field-independent basis, Debye):
    X=             -2.6058    Y=             -0.2482    Z=             -0.1015  Tot=              2.6196
 Quadrupole moment (field-independent basis, Debye-Ang):
   XX=            -38.8707   YY=            -24.2397   ZZ=            -25.6984
   XY=             -3.1870   XZ=             -1.9176   YZ=              1.8890

 ESP charges:
               1
     1  C   -0.503722
     2  S    0.351249
     3  N   -0.620315
     4  H    0.195645
     5  H    0.229591
     6  H    0.347553
 Sum of ESP charges =   0.00000

 Summary of Natural Population Analysis:

                                       Natural Population
                Natural  -----------------------------------------------
    Atom  No    Charge         Core      Valence    Rydberg      Total
 -----------------------------------------------------------------------
      C    1   -0.40483      0.99979     2.39109    0.01395     3.40483
      S    2    0.50030      4.99929     2.43830    0.06211     7.49970
      N    3   -0.50835      0.99986     2.98337    0.02512     4.00835
      H    4    0.11880      0.00000     0.37906    0.00213     0.38120
      H    5    0.11442      0.00000     0.38355    0.00203     0.38558
      H    6    0.17965      0.00000     0.31841    0.00193     0.32035
 =======================================================================
   * Total *    0.00000      6.99894     8.89379    0.10727    16.00000

 Normal termination of Gaussian 16 at Tue Jan  3 09:31:40 2023.
