 Gaussian 16, Revision C.01,

 ----------------------------------------------------------------------
 #p ub3lyp/gen stable=opt scf=(maxcycle=900,verytightlineq,xqc) integra
 l=grid=ultrafine symmetry=None density=current iop(99/18=-1) output=wf
 n
 ----------------------------------------------------------------------

 0004_q000_m01_k00_opt_uwb97xd_def2svpd/0004_q000_m01_k00_force_ub3lyp_
 def2tzvp stable-force
 ----------------------------------------------------------------------
 Symbolic Z-matrix:
 Charge =  0 Multiplicity = 1

 SCF Done:  E(UB3LYP) =  -492.852313517     A.U. after   13 cycles
 Normal termination of Gaussian 16 at Tue Jan  3 09:07:15 2023.
 Gaussian 16:  ES64L-G16RevC.01  3-Jul-2019

 ----------------------------------------------------------------------
 #p ub3lyp/chkbasis force guess=read geom=check scf=(maxcycle=900,veryt
 ightlineq,xqc) integral=grid=ultrafine symmetry=None density=current p
 op=(cm5,hlygat,mbs,npa) output=wfx
 ----------------------------------------------------------------------

 0004_q000_m01_k00_opt_uwb97xd_def2svpd/0004_q000_m01_k00_force_ub3lyp_
 def2tzvp stable-force
 ----------------------------------------------------------------------
 Structure from the checkpoint file:  "0004_q000_m01_k00_force_ub3lyp_def2tzvp.chk"
 Charge =  0 Multiplicity = 1

                          Input orientation:
 ---------------------------------------------------------------------
 Center     Atomic      Atomic             Coordinates (Angstroms)
 Number     Number       Type             X           Y           Z
 ---------------------------------------------------------------------
      1          6           0        0.888294    0.142235    0.108926
      2         16           0        2.506724    0.104170    0.044890
      3          7           0        3.303240    1.229897    0.770762
      4          1           0        0.375274   -0.665334   -0.413229
      5          1           0        0.324276    0.914865    0.633860
      6          1           0        2.713842    1.920118    1.241851
 ---------------------------------------------------------------------

 SCF Done:  E(UB3LYP) =  -492.852313517     A.U. after    1 cycles

 Alpha  occ. eigenvalues --  -88.94519 -14.31315 -10.20744  -8.01374  -5.97522
 Alpha  occ. eigenvalues --   -5.97471  -5.97067  -0.92918  -0.76703  -0.61026
 Alpha  occ. eigenvalues --   -0.49938  -0.47234  -0.38853  -0.35890  -0.30041
 Alpha  occ. eigenvalues --   -0.24201
 Alpha virt. eigenvalues --   -0.07358   0.02680   0.04519   0.06525   0.08969
 Alpha virt. eigenvalues --    0.13784   0.15495   0.20763   0.20913   0.25158
 Alpha virt. eigenvalues --    0.28764   0.28835   0.32495   0.34552   0.35418

  Beta  occ. eigenvalues --  -88.94519 -14.31315 -10.20744  -8.01374  -5.97522
  Beta  occ. eigenvalues --   -5.97471  -5.97067  -0.92918  -0.76703  -0.61026
  Beta  occ. eigenvalues --   -0.49938  -0.47234  -0.38853  -0.35890  -0.30041
  Beta  occ. eigenvalues --   -0.24201
  Beta virt. eigenvalues --   -0.07358   0.02680   0.04519   0.06525   0.08969
  Beta virt. eigenvalues --    0.13784   0.15495   0.20763   0.20913   0.25158
  Beta virt. eigenvalues --    0.28764   0.28835   0.32495   0.34552   0.35418

 Mulliken charges and spin densities:
               1          2
     1  C   -0.347455  -0.000000
     2  S    0.347130   0.000000
     3  N   -0.493772  -0.000000
     4  H    0.140487   0.000000
     5  H    0.146634  -0.000000
     6  H    0.206976  -0.000000
 Sum of Mulliken charges =   0.00000   0.00000

 Dipole moment (field-independent basis, Debye):
    X=             -2.5232    Y=             -0.2478    Z=             -0.1032  Tot=              2.5374
 Quadrupole moment (field-independent basis, Debye-Ang):
   XX=            -38.9436   YY=            -24.2924   ZZ=            -25.7293
   XY=             -3.1578   XZ=             -1.8937   YZ=              1.8614

 ESP charges:
               1
     1  C   -0.489073
     2  S    0.360799
     3  N   -0.634199
     4  H    0.187816
     5  H    0.215479
     6  H    0.359177
 Sum of ESP charges =   0.00000

 Summary of Natural Population Analysis:

                                       Natural Population
                Natural  -----------------------------------------------
    Atom  No    Charge         Core      Valence    Rydberg      Total
 -----------------------------------------------------------------------
      C    1   -0.40329      0.99977     2.38897    0.01455     3.40329
      S    2    0.49374      4.99928     2.45009    0.05690     7.50626
      N    3   -0.48881      0.99986     2.96689    0.02205     3.98881
      H    4    0.11630      0.00000     0.38299    0.00071     0.38370
      H    5    0.11009      0.00000     0.38887    0.00104     0.38991
      H    6    0.17198      0.00000     0.32678    0.00124     0.32802
 =======================================================================
   * Total *    0.00000      6.99891     8.90459    0.09651    16.00000

 Normal termination of Gaussian 16 at Tue Jan  3 09:07:26 2023.
