 Gaussian 16, Revision C.01,

 ----------------------------------------------------------------------
 #p uhf/gen stable=opt scf=(maxcycle=900,verytightlineq,xqc) integral=g
 rid=ultrafine symmetry=None density=current iop(99/18=-1) output=wfn
 ----------------------------------------------------------------------

 0004_q000_m01_k00_opt_uwb97xd_def2svpd/0004_q000_m01_k00_force_uhf_def
 2tzvp stable-force
 ----------------------------------------------------------------------
 Symbolic Z-matrix:
 Charge =  0 Multiplicity = 1

 SCF Done:  E(UHF) =  -491.547023463     A.U. after   14 cycles
 SCF Done:  E(UHF) =  -491.558645928     a.u. after    9 cycles
 Normal termination of Gaussian 16 at Tue Jan  3 09:06:47 2023.
 Gaussian 16:  ES64L-G16RevC.01  3-Jul-2019

 ----------------------------------------------------------------------
 #p uhf/chkbasis force guess=read geom=check scf=(maxcycle=900,verytigh
 tlineq,xqc) integral=grid=ultrafine symmetry=None density=current pop=
 (cm5,hlygat,mbs,npa) output=wfx
 ----------------------------------------------------------------------

 0004_q000_m01_k00_opt_uwb97xd_def2svpd/0004_q000_m01_k00_force_uhf_def
 2tzvp stable-force
 ----------------------------------------------------------------------
 Structure from the checkpoint file:  "0004_q000_m01_k00_force_uhf_def2tzvp.chk"
 Charge =  0 Multiplicity = 1

                          Input orientation:
 ---------------------------------------------------------------------
 Center     Atomic      Atomic             Coordinates (Angstroms)
 Number     Number       Type             X           Y           Z
 ---------------------------------------------------------------------
      1          6           0        0.888294    0.142235    0.108926
      2         16           0        2.506724    0.104170    0.044890
      3          7           0        3.303240    1.229897    0.770762
      4          1           0        0.375274   -0.665334   -0.413229
      5          1           0        0.324276    0.914865    0.633860
      6          1           0        2.713842    1.920118    1.241851
 ---------------------------------------------------------------------

 SCF Done:  E(UHF) =  -491.558645929     A.U. after    1 cycles

 Alpha  occ. eigenvalues --  -92.02490 -15.58013 -11.25141  -9.02395  -6.70725
 Alpha  occ. eigenvalues --   -6.70575  -6.70359  -1.23759  -1.01795  -0.80362
 Alpha  occ. eigenvalues --   -0.66329  -0.63075  -0.55792  -0.50054  -0.45284
 Alpha  occ. eigenvalues --   -0.36836
 Alpha virt. eigenvalues --    0.09519   0.14521   0.17167   0.18579   0.22114
 Alpha virt. eigenvalues --    0.26430   0.29145   0.34387   0.35697   0.40731
 Alpha virt. eigenvalues --    0.42907   0.45634   0.48926   0.51018   0.52077

  Beta  occ. eigenvalues --  -92.02307 -15.55816 -11.27004  -9.02222  -6.70450
  Beta  occ. eigenvalues --   -6.70289  -6.70000  -1.20352  -1.02579  -0.80961
  Beta  occ. eigenvalues --   -0.66131  -0.63823  -0.51136  -0.48511  -0.43871
  Beta  occ. eigenvalues --   -0.34288
  Beta virt. eigenvalues --    0.09708   0.14654   0.16728   0.18485   0.22349
  Beta virt. eigenvalues --    0.26320   0.29336   0.32337   0.33748   0.40104
  Beta virt. eigenvalues --    0.43053   0.43370   0.48962   0.52102   0.54206

 Mulliken charges and spin densities:
               1          2
     1  C   -0.393746  -0.865607
     2  S    0.389331   0.157480
     3  N   -0.535799   0.627447
     4  H    0.156190   0.056770
     5  H    0.154897   0.059784
     6  H    0.229127  -0.035875
 Sum of Mulliken charges =  -0.00000   0.00000

 Dipole moment (field-independent basis, Debye):
    X=             -2.8499    Y=              0.0609    Z=              0.1090  Tot=              2.8526
 Quadrupole moment (field-independent basis, Debye-Ang):
   XX=            -40.2263   YY=            -24.0179   ZZ=            -25.7278
   XY=             -2.2200   XZ=             -1.2585   YZ=              2.1538

 ESP charges:
               1
     1  C   -0.384662
     2  S    0.237902
     3  N   -0.602316
     4  H    0.176654
     5  H    0.193508
     6  H    0.378914
 Sum of ESP charges =   0.00000

 Summary of Natural Population Analysis:

                                       Natural Population
                Natural  -----------------------------------------------
    Atom  No    Charge         Core      Valence    Rydberg      Total
 -----------------------------------------------------------------------
      C    1   -0.74499      0.99979     2.72804    0.01716     3.74499
      S    2    0.51298      4.99934     2.42832    0.05936     7.48702
      N    3   -0.16577      0.99987     2.63859    0.02731     3.66577
      H    4    0.12444      0.00000     0.37497    0.00059     0.37556
      H    5    0.11854      0.00000     0.38052    0.00094     0.38146
      H    6    0.15479      0.00000     0.34421    0.00100     0.34521
 =======================================================================
   * Total *   -0.00000      6.99900     8.89466    0.10635    16.00000

 Normal termination of Gaussian 16 at Tue Jan  3 09:06:55 2023.
