 Gaussian 16, Revision C.01,

 ----------------------------------------------------------------------
 #p uhf/gen stable=opt scf=(maxcycle=900,verytightlineq,xqc) integral=g
 rid=ultrafine symmetry=None density=current iop(99/18=-1) output=wfn
 ----------------------------------------------------------------------

 0004_q000_m01_k00_opt_uwb97xd_def2svpd/0004_q000_m01_k00_force_uhf_def
 2qzvp stable-force
 ----------------------------------------------------------------------
 Symbolic Z-matrix:
 Charge =  0 Multiplicity = 1

 SCF Done:  E(UHF) =  -491.565583672     A.U. after   15 cycles
 SCF Done:  E(UHF) =  -491.577098880     a.u. after   10 cycles
 Normal termination of Gaussian 16 at Tue Jan  3 09:34:16 2023.
 Gaussian 16:  ES64L-G16RevC.01  3-Jul-2019

 ----------------------------------------------------------------------
 #p uhf/chkbasis force guess=read geom=check scf=(maxcycle=900,verytigh
 tlineq,xqc) integral=grid=ultrafine symmetry=None density=current pop=
 (cm5,hlygat,mbs,npa) output=wfx
 ----------------------------------------------------------------------

 0004_q000_m01_k00_opt_uwb97xd_def2svpd/0004_q000_m01_k00_force_uhf_def
 2qzvp stable-force
 ----------------------------------------------------------------------
 Structure from the checkpoint file:  "0004_q000_m01_k00_force_uhf_def2qzvp.chk"
 Charge =  0 Multiplicity = 1

                          Input orientation:
 ---------------------------------------------------------------------
 Center     Atomic      Atomic             Coordinates (Angstroms)
 Number     Number       Type             X           Y           Z
 ---------------------------------------------------------------------
      1          6           0        0.888294    0.142235    0.108926
      2         16           0        2.506724    0.104170    0.044890
      3          7           0        3.303240    1.229897    0.770762
      4          1           0        0.375274   -0.665334   -0.413229
      5          1           0        0.324276    0.914865    0.633860
      6          1           0        2.713842    1.920118    1.241851
 ---------------------------------------------------------------------

 SCF Done:  E(UHF) =  -491.577098880     A.U. after    1 cycles

 Alpha  occ. eigenvalues --  -92.02789 -15.58008 -11.25262  -9.02429  -6.70795
 Alpha  occ. eigenvalues --   -6.70600  -6.70393  -1.23775  -1.01830  -0.80432
 Alpha  occ. eigenvalues --   -0.66386  -0.63121  -0.55847  -0.50132  -0.45379
 Alpha  occ. eigenvalues --   -0.36929
 Alpha virt. eigenvalues --    0.08585   0.10761   0.12764   0.14637   0.16681
 Alpha virt. eigenvalues --    0.20829   0.23026   0.23454   0.27312   0.29533
 Alpha virt. eigenvalues --    0.30864   0.33645   0.35101   0.35388   0.39507

  Beta  occ. eigenvalues --  -92.02605 -15.55853 -11.27091  -9.02248  -6.70467
  Beta  occ. eigenvalues --   -6.70330  -6.70044  -1.20371  -1.02646  -0.81003
  Beta  occ. eigenvalues --   -0.66187  -0.63874  -0.51188  -0.48593  -0.43971
  Beta  occ. eigenvalues --   -0.34389
  Beta virt. eigenvalues --    0.08938   0.10561   0.12722   0.14617   0.16968
  Beta virt. eigenvalues --    0.20780   0.20811   0.23747   0.27285   0.28929
  Beta virt. eigenvalues --    0.29013   0.33314   0.34828   0.39128   0.39197

 Mulliken charges and spin densities:
               1          2
     1  C   -0.270226  -0.898704
     2  S    0.310599   0.159259
     3  N   -0.458804   0.632450
     4  H    0.118234   0.070960
     5  H    0.116228   0.075803
     6  H    0.183968  -0.039768
 Sum of Mulliken charges =   0.00000  -0.00000

 Dipole moment (field-independent basis, Debye):
    X=             -2.8314    Y=              0.0566    Z=              0.1057  Tot=              2.8339
 Quadrupole moment (field-independent basis, Debye-Ang):
   XX=            -40.0589   YY=            -24.1269   ZZ=            -25.8178
   XY=             -2.1996   XZ=             -1.2501   YZ=              2.1298

 ESP charges:
               1
     1  C   -0.378026
     2  S    0.229717
     3  N   -0.587312
     4  H    0.174497
     5  H    0.193075
     6  H    0.368050
 Sum of ESP charges =   0.00000

 Summary of Natural Population Analysis:

                                       Natural Population
                Natural  -----------------------------------------------
    Atom  No    Charge         Core      Valence    Rydberg      Total
 -----------------------------------------------------------------------
      C    1   -0.74148      0.99979     2.72428    0.01741     3.74148
      S    2    0.51523      4.99930     2.42451    0.06096     7.48477
      N    3   -0.17773      0.99987     2.64853    0.02933     3.67773
      H    4    0.12451      0.00000     0.37378    0.00171     0.37549
      H    5    0.11998      0.00000     0.37811    0.00191     0.38002
      H    6    0.15949      0.00000     0.33873    0.00178     0.34051
 =======================================================================
   * Total *    0.00000      6.99896     8.88794    0.11310    16.00000

 Normal termination of Gaussian 16 at Tue Jan  3 09:35:45 2023.
