 Gaussian 16, Revision C.01,

 ----------------------------------------------------------------------
 #p uwb97xd/gen stable=opt scf=(maxcycle=900,verytightlineq,xqc) integr
 al=grid=ultrafine symmetry=None density=current iop(99/18=-1) output=w
 fn
 ----------------------------------------------------------------------

 0004_q000_m01_k00_opt_uwb97xd_def2svpd/0004_q000_m01_k00_force_uwb97xd
 _def2svpd stable-force
 ----------------------------------------------------------------------
 Symbolic Z-matrix:
 Charge =  0 Multiplicity = 1

 SCF Done:  E(UwB97XD) =  -492.543709301     A.U. after   13 cycles

 1\1\GINC-GRA1085\Stability\UwB97XD\Gen\C1H3N1S1\BHAVUK\03-Jan-2023\0\\
 #p uwb97xd/gen stable=opt scf=(maxcycle=900,verytightlineq,xqc) integr
 al=grid=ultrafine symmetry=None density=current iop(99/18=-1) output=w
 fn\\0004_q000_m01_k00_opt_uwb97xd_def2svpd/0004_q000_m01_k00_force_uwb
 97xd_def2svpd stable-force\\0,1\C,0,0.8882935141,0.1422345627,0.108926
 3123\S,0,2.5067242222,0.1041696479,0.0448895292\N,0,3.3032398974,1.229
 8974173,0.7707622237\H,0,0.3752741579,-0.6653344173,-0.4132293362\H,0,
 0.3242760911,0.9148647349,0.6338600998\H,0,2.7138421188,1.9201180545,1

 Normal termination of Gaussian 16 at Tue Jan  3 09:07:44 2023.
 Gaussian 16:  ES64L-G16RevC.01  3-Jul-2019

 ----------------------------------------------------------------------
 #p uwb97xd/chkbasis force guess=read geom=check scf=(maxcycle=900,very
 tightlineq,xqc) integral=grid=ultrafine symmetry=None density=current
 pop=(cm5,hlygat,mbs,npa) output=wfx
 ----------------------------------------------------------------------

 0004_q000_m01_k00_opt_uwb97xd_def2svpd/0004_q000_m01_k00_force_uwb97xd
 _def2svpd stable-force
 ----------------------------------------------------------------------
 Structure from the checkpoint file:  "0004_q000_m01_k00_force_uwb97xd_def2svpd.chk"
 Charge =  0 Multiplicity = 1

                          Input orientation:
 ---------------------------------------------------------------------
 Center     Atomic      Atomic             Coordinates (Angstroms)
 Number     Number       Type             X           Y           Z
 ---------------------------------------------------------------------
      1          6           0        0.888294    0.142235    0.108926
      2         16           0        2.506724    0.104170    0.044890
      3          7           0        3.303240    1.229897    0.770762
      4          1           0        0.375274   -0.665334   -0.413229
      5          1           0        0.324276    0.914865    0.633860
      6          1           0        2.713842    1.920118    1.241851
 ---------------------------------------------------------------------

 SCF Done:  E(UwB97XD) =  -492.543709301     A.U. after    1 cycles

 Alpha  occ. eigenvalues --  -89.12097 -14.44338 -10.33767  -8.15983  -6.11318
 Alpha  occ. eigenvalues --   -6.11121  -6.10747  -1.03174  -0.86333  -0.70078
 Alpha  occ. eigenvalues --   -0.58896  -0.56179  -0.47967  -0.44393  -0.37973
 Alpha  occ. eigenvalues --   -0.31693
 Alpha virt. eigenvalues --   -0.00663   0.07848   0.08633   0.09862   0.11802
 Alpha virt. eigenvalues --    0.13054   0.14750   0.15522   0.20592   0.22669
 Alpha virt. eigenvalues --    0.23895   0.24171   0.28146   0.28391   0.29766

  Beta  occ. eigenvalues --  -89.12097 -14.44338 -10.33767  -8.15983  -6.11318
  Beta  occ. eigenvalues --   -6.11121  -6.10747  -1.03174  -0.86333  -0.70078
  Beta  occ. eigenvalues --   -0.58896  -0.56179  -0.47967  -0.44393  -0.37973
  Beta  occ. eigenvalues --   -0.31693
  Beta virt. eigenvalues --   -0.00663   0.07848   0.08633   0.09862   0.11802
  Beta virt. eigenvalues --    0.13054   0.14750   0.15522   0.20592   0.22669
  Beta virt. eigenvalues --    0.23895   0.24171   0.28146   0.28391   0.29766

 Mulliken charges and spin densities:
               1          2
     1  C    0.316565   0.000000
     2  S    0.089691   0.000000
     3  N   -0.265784   0.000000
     4  H   -0.095198   0.000000
     5  H   -0.057464   0.000000
     6  H    0.012190   0.000000
 Sum of Mulliken charges =  -0.00000   0.00000

 Dipole moment (field-independent basis, Debye):
    X=             -2.6695    Y=             -0.2339    Z=             -0.0904  Tot=              2.6812
 Quadrupole moment (field-independent basis, Debye-Ang):
   XX=            -39.2559   YY=            -24.4197   ZZ=            -25.8992
   XY=             -3.1097   XZ=             -1.8645   YZ=              1.9101

 ESP charges:
               1
     1  C   -0.496610
     2  S    0.338050
     3  N   -0.618790
     4  H    0.198626
     5  H    0.229771
     6  H    0.348953
 Sum of ESP charges =   0.00000

 Summary of Natural Population Analysis:

                                       Natural Population
                Natural  -----------------------------------------------
    Atom  No    Charge         Core      Valence    Rydberg      Total
 -----------------------------------------------------------------------
      C    1   -0.40049      0.99977     2.38854    0.01218     3.40049
      S    2    0.48934      4.99922     2.45741    0.05403     7.51066
      N    3   -0.51999      0.99985     2.99845    0.02169     4.01999
      H    4    0.12595      0.00000     0.37120    0.00285     0.37405
      H    5    0.11866      0.00000     0.37843    0.00291     0.38134
      H    6    0.18653      0.00000     0.30977    0.00370     0.31347
 =======================================================================
   * Total *   -0.00000      6.99883     8.90381    0.09736    16.00000

 Optimization completed.
    -- Stationary point found.
 Normal termination of Gaussian 16 at Tue Jan  3 09:07:53 2023.
