 Gaussian 16, Revision C.01,

 ----------------------------------------------------------------------
 #p uwb97xd/gen stable=opt scf=(maxcycle=900,verytightlineq,xqc) integr
 al=grid=ultrafine symmetry=None density=current iop(99/18=-1) output=w
 fn
 ----------------------------------------------------------------------

 0004_q000_m01_k00_opt_uwb97xd_def2svpd/0004_q000_m01_k00_force_uwb97xd
 _def2tzvp stable-force
 ----------------------------------------------------------------------
 Symbolic Z-matrix:
 Charge =  0 Multiplicity = 1

 SCF Done:  E(UwB97XD) =  -492.792119351     A.U. after   16 cycles

 1\1\GINC-GRA1045\Stability\UwB97XD\Gen\C1H3N1S1\BHAVUK\03-Jan-2023\0\\
 #p uwb97xd/gen stable=opt scf=(maxcycle=900,verytightlineq,xqc) integr
 al=grid=ultrafine symmetry=None density=current iop(99/18=-1) output=w
 fn\\0004_q000_m01_k00_opt_uwb97xd_def2svpd/0004_q000_m01_k00_force_uwb
 97xd_def2tzvp stable-force\\0,1\C,0,0.8882935141,0.1422345627,0.108926
 3123\S,0,2.5067242222,0.1041696479,0.0448895292\N,0,3.3032398974,1.229
 8974173,0.7707622237\H,0,0.3752741579,-0.6653344173,-0.4132293362\H,0,
 0.3242760911,0.9148647349,0.6338600998\H,0,2.7138421188,1.9201180545,1

 Normal termination of Gaussian 16 at Tue Jan  3 09:08:09 2023.
 Gaussian 16:  ES64L-G16RevC.01  3-Jul-2019

 ----------------------------------------------------------------------
 #p uwb97xd/chkbasis force guess=read geom=check scf=(maxcycle=900,very
 tightlineq,xqc) integral=grid=ultrafine symmetry=None density=current
 pop=(cm5,hlygat,mbs,npa) output=wfx
 ----------------------------------------------------------------------

 0004_q000_m01_k00_opt_uwb97xd_def2svpd/0004_q000_m01_k00_force_uwb97xd
 _def2tzvp stable-force
 ----------------------------------------------------------------------
 Structure from the checkpoint file:  "0004_q000_m01_k00_force_uwb97xd_def2tzvp.chk"
 Charge =  0 Multiplicity = 1

                          Input orientation:
 ---------------------------------------------------------------------
 Center     Atomic      Atomic             Coordinates (Angstroms)
 Number     Number       Type             X           Y           Z
 ---------------------------------------------------------------------
      1          6           0        0.888294    0.142235    0.108926
      2         16           0        2.506724    0.104170    0.044890
      3          7           0        3.303240    1.229897    0.770762
      4          1           0        0.375274   -0.665334   -0.413229
      5          1           0        0.324276    0.914865    0.633860
      6          1           0        2.713842    1.920118    1.241851
 ---------------------------------------------------------------------

 SCF Done:  E(UwB97XD) =  -492.792119351     A.U. after    1 cycles

 Alpha  occ. eigenvalues --  -89.11245 -14.42887 -10.32015  -8.13711  -6.08391
 Alpha  occ. eigenvalues --   -6.08338  -6.07918  -1.02702  -0.86281  -0.70039
 Alpha  occ. eigenvalues --   -0.58262  -0.55749  -0.47358  -0.43907  -0.37923
 Alpha  occ. eigenvalues --   -0.31462
 Alpha virt. eigenvalues --   -0.00195   0.10578   0.12527   0.14565   0.16981
 Alpha virt. eigenvalues --    0.21590   0.23862   0.28886   0.29137   0.33282
 Alpha virt. eigenvalues --    0.37065   0.37179   0.40791   0.42885   0.44043

  Beta  occ. eigenvalues --  -89.11245 -14.42887 -10.32015  -8.13711  -6.08391
  Beta  occ. eigenvalues --   -6.08338  -6.07918  -1.02702  -0.86281  -0.70039
  Beta  occ. eigenvalues --   -0.58262  -0.55749  -0.47358  -0.43907  -0.37923
  Beta  occ. eigenvalues --   -0.31462
  Beta virt. eigenvalues --   -0.00195   0.10578   0.12527   0.14565   0.16981
  Beta virt. eigenvalues --    0.21590   0.23862   0.28886   0.29137   0.33282
  Beta virt. eigenvalues --    0.37065   0.37179   0.40791   0.42885   0.44043

 Mulliken charges and spin densities:
               1          2
     1  C   -0.388454   0.000000
     2  S    0.361119   0.000000
     3  N   -0.519875   0.000000
     4  H    0.160690   0.000000
     5  H    0.163565   0.000000
     6  H    0.222955   0.000000
 Sum of Mulliken charges =   0.00000   0.00000

 Dipole moment (field-independent basis, Debye):
    X=             -2.6149    Y=             -0.2648    Z=             -0.1122  Tot=              2.6306
 Quadrupole moment (field-independent basis, Debye-Ang):
   XX=            -39.0681   YY=            -24.0493   ZZ=            -25.5341
   XY=             -3.2586   XZ=             -1.9571   YZ=              1.9225

 ESP charges:
               1
     1  C   -0.515192
     2  S    0.370002
     3  N   -0.647886
     4  H    0.199719
     5  H    0.227591
     6  H    0.365766
 Sum of ESP charges =   0.00000

 Summary of Natural Population Analysis:

                                       Natural Population
                Natural  -----------------------------------------------
    Atom  No    Charge         Core      Valence    Rydberg      Total
 -----------------------------------------------------------------------
      C    1   -0.40925      0.99978     2.39494    0.01453     3.40925
      S    2    0.50074      4.99928     2.44233    0.05764     7.49926
      N    3   -0.49735      0.99987     2.97489    0.02260     3.99735
      H    4    0.11844      0.00000     0.38097    0.00059     0.38156
      H    5    0.11272      0.00000     0.38639    0.00089     0.38728
      H    6    0.17469      0.00000     0.32426    0.00104     0.32531
 =======================================================================
   * Total *   -0.00000      6.99893     8.90379    0.09728    16.00000

 Normal termination of Gaussian 16 at Tue Jan  3 09:08:25 2023.
