 Gaussian 16, Revision C.01,

 ----------------------------------------------------------------------
 #p ub3lyp/gen stable=opt scf=(maxcycle=900,verytightlineq,xqc) integra
 l=grid=ultrafine symmetry=None density=current iop(99/18=-1) output=wf
 n
 ----------------------------------------------------------------------

 0004_q000_m01_k00_opt_uwb97xd_def2svpd/0004_q000_m01_k00_force_ub3lyp_
 def2qzvp stable-force
 ----------------------------------------------------------------------
 Symbolic Z-matrix:
 Charge =  0 Multiplicity = 1

 SCF Done:  E(UB3LYP) =  -492.874867441     A.U. after   13 cycles
 Normal termination of Gaussian 16 at Tue Jan  3 09:17:31 2023.
 Gaussian 16:  ES64L-G16RevC.01  3-Jul-2019

 ----------------------------------------------------------------------
 #p ub3lyp/chkbasis force guess=read geom=check scf=(maxcycle=900,veryt
 ightlineq,xqc) integral=grid=ultrafine symmetry=None density=current p
 op=(cm5,hlygat,mbs,npa) output=wfx
 ----------------------------------------------------------------------

 0004_q000_m01_k00_opt_uwb97xd_def2svpd/0004_q000_m01_k00_force_ub3lyp_
 def2qzvp stable-force
 ----------------------------------------------------------------------
 Structure from the checkpoint file:  "0004_q000_m01_k00_force_ub3lyp_def2qzvp.chk"
 Charge =  0 Multiplicity = 1

                          Input orientation:
 ---------------------------------------------------------------------
 Center     Atomic      Atomic             Coordinates (Angstroms)
 Number     Number       Type             X           Y           Z
 ---------------------------------------------------------------------
      1          6           0        0.888294    0.142235    0.108926
      2         16           0        2.506724    0.104170    0.044890
      3          7           0        3.303240    1.229897    0.770762
      4          1           0        0.375274   -0.665334   -0.413229
      5          1           0        0.324276    0.914865    0.633860
      6          1           0        2.713842    1.920118    1.241851
 ---------------------------------------------------------------------

 SCF Done:  E(UB3LYP) =  -492.874867441     A.U. after    1 cycles

 Alpha  occ. eigenvalues --  -88.94296 -14.31646 -10.21127  -8.01595  -5.97741
 Alpha  occ. eigenvalues --   -5.97720  -5.97319  -0.92999  -0.76799  -0.61127
 Alpha  occ. eigenvalues --   -0.50037  -0.47329  -0.38983  -0.36019  -0.30239
 Alpha  occ. eigenvalues --   -0.24376
 Alpha virt. eigenvalues --   -0.07649   0.01576   0.02407   0.04562   0.06082
 Alpha virt. eigenvalues --    0.10788   0.11647   0.11992   0.16101   0.17681
 Alpha virt. eigenvalues --    0.18773   0.19895   0.22731   0.23570   0.26371

  Beta  occ. eigenvalues --  -88.94296 -14.31646 -10.21127  -8.01595  -5.97741
  Beta  occ. eigenvalues --   -5.97720  -5.97319  -0.92999  -0.76799  -0.61127
  Beta  occ. eigenvalues --   -0.50037  -0.47329  -0.38983  -0.36019  -0.30239
  Beta  occ. eigenvalues --   -0.24376
  Beta virt. eigenvalues --   -0.07649   0.01576   0.02407   0.04562   0.06082
  Beta virt. eigenvalues --    0.10788   0.11647   0.11992   0.16101   0.17681
  Beta virt. eigenvalues --    0.18773   0.19895   0.22731   0.23570   0.26371

 Mulliken charges and spin densities:
               1          2
     1  C   -0.197041   0.000000
     2  S    0.356219  -0.000000
     3  N   -0.448254   0.000000
     4  H    0.068236  -0.000000
     5  H    0.076404  -0.000000
     6  H    0.144437  -0.000000
 Sum of Mulliken charges =   0.00000  -0.00000

 Dipole moment (field-independent basis, Debye):
    X=             -2.5154    Y=             -0.2520    Z=             -0.1062  Tot=              2.5302
 Quadrupole moment (field-independent basis, Debye-Ang):
   XX=            -38.8787   YY=            -24.4640   ZZ=            -25.8595
   XY=             -3.1529   XZ=             -1.8941   YZ=              1.8121

 ESP charges:
               1
     1  C   -0.472951
     2  S    0.349332
     3  N   -0.617778
     4  H    0.181739
     5  H    0.212912
     6  H    0.346746
 Sum of ESP charges =   0.00000

 Summary of Natural Population Analysis:

                                       Natural Population
                Natural  -----------------------------------------------
    Atom  No    Charge         Core      Valence    Rydberg      Total
 -----------------------------------------------------------------------
      C    1   -0.40221      0.99978     2.38658    0.01585     3.40221
      S    2    0.49593      4.99927     2.44637    0.05842     7.50407
      N    3   -0.50113      0.99986     2.97711    0.02416     4.00113
      H    4    0.11809      0.00000     0.38081    0.00110     0.38191
      H    5    0.11184      0.00000     0.38611    0.00205     0.38816
      H    6    0.17747      0.00000     0.32059    0.00194     0.32253
 =======================================================================
   * Total *    0.00000      6.99892     8.89756    0.10352    16.00000

 Normal termination of Gaussian 16 at Tue Jan  3 09:19:10 2023.
