 Gaussian 16, Revision C.01,

 ----------------------------------------------------------------------
 #p uwb97xd/gen stable=opt scf=(maxcycle=900,verytightlineq,xqc) integr
 al=grid=ultrafine symmetry=None density=current iop(99/18=-1) output=w
 fn
 ----------------------------------------------------------------------

 0004_q000_m01_k00_opt_uwb97xd_def2svpd/0004_q000_m01_k00_force_uwb97xd
 _def2qzvp stable-force
 ----------------------------------------------------------------------
 Symbolic Z-matrix:
 Charge =  0 Multiplicity = 1

 SCF Done:  E(UwB97XD) =  -492.813266228     A.U. after   14 cycles
 Normal termination of Gaussian 16 at Tue Jan  3 09:22:00 2023.
 Gaussian 16:  ES64L-G16RevC.01  3-Jul-2019

 ----------------------------------------------------------------------
 #p uwb97xd/chkbasis force guess=read geom=check scf=(maxcycle=900,very
 tightlineq,xqc) integral=grid=ultrafine symmetry=None density=current
 pop=(cm5,hlygat,mbs,npa) output=wfx
 ----------------------------------------------------------------------

 0004_q000_m01_k00_opt_uwb97xd_def2svpd/0004_q000_m01_k00_force_uwb97xd
 _def2qzvp stable-force
 ----------------------------------------------------------------------
 Structure from the checkpoint file:  "0004_q000_m01_k00_force_uwb97xd_def2qzvp.chk"
 Charge =  0 Multiplicity = 1

                          Input orientation:
 ---------------------------------------------------------------------
 Center     Atomic      Atomic             Coordinates (Angstroms)
 Number     Number       Type             X           Y           Z
 ---------------------------------------------------------------------
      1          6           0        0.888294    0.142235    0.108926
      2         16           0        2.506724    0.104170    0.044890
      3          7           0        3.303240    1.229897    0.770762
      4          1           0        0.375274   -0.665334   -0.413229
      5          1           0        0.324276    0.914865    0.633860
      6          1           0        2.713842    1.920118    1.241851
 ---------------------------------------------------------------------

 SCF Done:  E(UwB97XD) =  -492.813266228     A.U. after    1 cycles

 Alpha  occ. eigenvalues --  -89.11216 -14.43171 -10.32337  -8.13918  -6.08591
 Alpha  occ. eigenvalues --   -6.08571  -6.08152  -1.02731  -0.86331  -0.70103
 Alpha  occ. eigenvalues --   -0.58316  -0.55802  -0.47442  -0.43989  -0.38061
 Alpha  occ. eigenvalues --   -0.31574
 Alpha virt. eigenvalues --   -0.00440   0.09179   0.09904   0.12005   0.13520
 Alpha virt. eigenvalues --    0.18326   0.19251   0.19595   0.23736   0.25530
 Alpha virt. eigenvalues --    0.26528   0.27424   0.30270   0.31869   0.34260

  Beta  occ. eigenvalues --  -89.11216 -14.43171 -10.32337  -8.13918  -6.08591
  Beta  occ. eigenvalues --   -6.08571  -6.08152  -1.02731  -0.86331  -0.70103
  Beta  occ. eigenvalues --   -0.58316  -0.55802  -0.47442  -0.43989  -0.38061
  Beta  occ. eigenvalues --   -0.31574
  Beta virt. eigenvalues --   -0.00440   0.09179   0.09904   0.12005   0.13520
  Beta virt. eigenvalues --    0.18326   0.19251   0.19595   0.23736   0.25530
  Beta virt. eigenvalues --    0.26528   0.27424   0.30270   0.31869   0.34260

 Mulliken charges and spin densities:
               1          2
     1  C   -0.198952  -0.000000
     2  S    0.290966   0.000000
     3  N   -0.438563  -0.000000
     4  H    0.096992   0.000000
     5  H    0.090999   0.000000
     6  H    0.158558   0.000000
 Sum of Mulliken charges =   0.00000   0.00000

 Dipole moment (field-independent basis, Debye):
    X=             -2.6017    Y=             -0.2588    Z=             -0.1086  Tot=              2.6168
 Quadrupole moment (field-independent basis, Debye-Ang):
   XX=            -38.8834   YY=            -24.1728   ZZ=            -25.6259
   XY=             -3.2041   XZ=             -1.9265   YZ=              1.8825

 ESP charges:
               1
     1  C   -0.502636
     2  S    0.354854
     3  N   -0.626700
     4  H    0.196004
     5  H    0.226671
     6  H    0.351807
 Sum of ESP charges =   0.00000

 Summary of Natural Population Analysis:

                                       Natural Population
                Natural  -----------------------------------------------
    Atom  No    Charge         Core      Valence    Rydberg      Total
 -----------------------------------------------------------------------
      C    1   -0.40779      0.99979     2.39211    0.01590     3.40779
      S    2    0.50290      4.99928     2.43914    0.05867     7.49710
      N    3   -0.50954      0.99987     2.98471    0.02496     4.00954
      H    4    0.12011      0.00000     0.37892    0.00096     0.37989
      H    5    0.11442      0.00000     0.38371    0.00187     0.38558
      H    6    0.17990      0.00000     0.31841    0.00169     0.32010
 =======================================================================
   * Total *   -0.00000      6.99894     8.89701    0.10405    16.00000

 Normal termination of Gaussian 16 at Tue Jan  3 09:24:49 2023.
