 Gaussian 16, Revision C.01,

 ----------------------------------------------------------------------
 #p uhf/gen stable=opt scf=(maxcycle=900,verytightlineq,xqc) integral=g
 rid=ultrafine symmetry=None density=current iop(99/18=-1) output=wfn
 ----------------------------------------------------------------------

 0004_q000_m01_k00_opt_uwb97xd_def2svpd/0004_q000_m01_k00_force_uhf_def
 2qzvpd stable-force
 ----------------------------------------------------------------------
 Symbolic Z-matrix:
 Charge =  0 Multiplicity = 1

 SCF Done:  E(UHF) =  -491.565903262     A.U. after   13 cycles
 SCF Done:  E(UHF) =  -491.577343581     a.u. after   10 cycles
 Normal termination of Gaussian 16 at Tue Jan  3 09:45:37 2023.
 Gaussian 16:  ES64L-G16RevC.01  3-Jul-2019

 ----------------------------------------------------------------------
 #p uhf/chkbasis force guess=read geom=check scf=(maxcycle=900,verytigh
 tlineq,xqc) integral=grid=ultrafine symmetry=None density=current pop=
 (cm5,hlygat,mbs,npa) output=wfx
 ----------------------------------------------------------------------

 0004_q000_m01_k00_opt_uwb97xd_def2svpd/0004_q000_m01_k00_force_uhf_def
 2qzvpd stable-force
 ----------------------------------------------------------------------
 Structure from the checkpoint file:  "0004_q000_m01_k00_force_uhf_def2qzvpd.chk"
 Charge =  0 Multiplicity = 1

                          Input orientation:
 ---------------------------------------------------------------------
 Center     Atomic      Atomic             Coordinates (Angstroms)
 Number     Number       Type             X           Y           Z
 ---------------------------------------------------------------------
      1          6           0        0.888294    0.142235    0.108926
      2         16           0        2.506724    0.104170    0.044890
      3          7           0        3.303240    1.229897    0.770762
      4          1           0        0.375274   -0.665334   -0.413229
      5          1           0        0.324276    0.914865    0.633860
      6          1           0        2.713842    1.920118    1.241851
 ---------------------------------------------------------------------

 SCF Done:  E(UHF) =  -491.577343581     A.U. after    1 cycles

 Alpha  occ. eigenvalues --  -92.02846 -15.58042 -11.25301  -9.02481  -6.70850
 Alpha  occ. eigenvalues --   -6.70651  -6.70444  -1.23803  -1.01859  -0.80464
 Alpha  occ. eigenvalues --   -0.66417  -0.63148  -0.55865  -0.50159  -0.45410
 Alpha  occ. eigenvalues --   -0.36951
 Alpha virt. eigenvalues --    0.05091   0.05548   0.06190   0.06402   0.08800
 Alpha virt. eigenvalues --    0.11275   0.14003   0.14131   0.17324   0.18191
 Alpha virt. eigenvalues --    0.19554   0.20459   0.21592   0.23360   0.24199

  Beta  occ. eigenvalues --  -92.02660 -15.55892 -11.27129  -9.02298  -6.70517
  Beta  occ. eigenvalues --   -6.70381  -6.70091  -1.20406  -1.02680  -0.81028
  Beta  occ. eigenvalues --   -0.66219  -0.63901  -0.51209  -0.48621  -0.44001
  Beta  occ. eigenvalues --   -0.34418
  Beta virt. eigenvalues --    0.05096   0.05437   0.06398   0.06498   0.08267
  Beta virt. eigenvalues --    0.11264   0.14028   0.14271   0.17281   0.19550
  Beta virt. eigenvalues --    0.19669   0.20366   0.20465   0.21623   0.24041

 Mulliken charges and spin densities:
               1          2
     1  C   -0.277748  -0.898049
     2  S    0.305157   0.172248
     3  N   -0.488821   0.653662
     4  H    0.168583   0.049059
     5  H    0.113925   0.076246
     6  H    0.178904  -0.053166
 Sum of Mulliken charges =   0.00000   0.00000

 Dipole moment (field-independent basis, Debye):
    X=             -2.8294    Y=              0.0608    Z=              0.1084  Tot=              2.8321
 Quadrupole moment (field-independent basis, Debye-Ang):
   XX=            -40.0252   YY=            -24.1742   ZZ=            -25.8718
   XY=             -2.1955   XZ=             -1.2496   YZ=              2.1379

 ESP charges:
               1
     1  C   -0.380829
     2  S    0.228665
     3  N   -0.583248
     4  H    0.174849
     5  H    0.195571
     6  H    0.364992
 Sum of ESP charges =   0.00000

 Summary of Natural Population Analysis:

                                       Natural Population
                Natural  -----------------------------------------------
    Atom  No    Charge         Core      Valence    Rydberg      Total
 -----------------------------------------------------------------------
      C    1   -0.74024      0.99979     2.72488    0.01557     3.74024
      S    2    0.51391      4.99931     2.42228    0.06450     7.48609
      N    3   -0.17798      0.99986     2.64869    0.02942     3.67798
      H    4    0.12471      0.00000     0.37331    0.00198     0.37529
      H    5    0.12022      0.00000     0.37781    0.00196     0.37978
      H    6    0.15938      0.00000     0.33865    0.00197     0.34062
 =======================================================================
   * Total *    0.00000      6.99897     8.88563    0.11541    16.00000

 Normal termination of Gaussian 16 at Tue Jan  3 09:47:41 2023.
