 Gaussian 16, Revision C.01,

 ----------------------------------------------------------------------
 #p ub3lyp/gen stable=opt scf=(maxcycle=900,verytightlineq,xqc) integra
 l=grid=ultrafine symmetry=None density=current iop(99/18=-1) output=wf
 n
 ----------------------------------------------------------------------

 0004_q000_m01_k00_opt_uwb97xd_def2svpd/0004_q000_m01_k00_force_ub3lyp_
 def2qzvpd stable-force
 ----------------------------------------------------------------------
 Symbolic Z-matrix:
 Charge =  0 Multiplicity = 1

 SCF Done:  E(UB3LYP) =  -492.875241075     A.U. after   10 cycles
 Normal termination of Gaussian 16 at Tue Jan  3 09:21:28 2023.
 Gaussian 16:  ES64L-G16RevC.01  3-Jul-2019

 ----------------------------------------------------------------------
 #p ub3lyp/chkbasis force guess=read geom=check scf=(maxcycle=900,veryt
 ightlineq,xqc) integral=grid=ultrafine symmetry=None density=current p
 op=(cm5,hlygat,mbs,npa) output=wfx
 ----------------------------------------------------------------------

 0004_q000_m01_k00_opt_uwb97xd_def2svpd/0004_q000_m01_k00_force_ub3lyp_
 def2qzvpd stable-force
 ----------------------------------------------------------------------
 Structure from the checkpoint file:  "0004_q000_m01_k00_force_ub3lyp_def2qzvpd.chk"
 Charge =  0 Multiplicity = 1

                          Input orientation:
 ---------------------------------------------------------------------
 Center     Atomic      Atomic             Coordinates (Angstroms)
 Number     Number       Type             X           Y           Z
 ---------------------------------------------------------------------
      1          6           0        0.888294    0.142235    0.108926
      2         16           0        2.506724    0.104170    0.044890
      3          7           0        3.303240    1.229897    0.770762
      4          1           0        0.375274   -0.665334   -0.413229
      5          1           0        0.324276    0.914865    0.633860
      6          1           0        2.713842    1.920118    1.241851
 ---------------------------------------------------------------------

 SCF Done:  E(UB3LYP) =  -492.875241075     A.U. after    1 cycles

 Alpha  occ. eigenvalues --  -88.94353 -14.31717 -10.21192  -8.01652  -5.97798
 Alpha  occ. eigenvalues --   -5.97777  -5.97376  -0.93058  -0.76851  -0.61177
 Alpha  occ. eigenvalues --   -0.50091  -0.47375  -0.39034  -0.36069  -0.30306
 Alpha  occ. eigenvalues --   -0.24437
 Alpha virt. eigenvalues --   -0.07765  -0.00412   0.00524   0.01675   0.02871
 Alpha virt. eigenvalues --    0.03844   0.05549   0.06434   0.08726   0.10723
 Alpha virt. eigenvalues --    0.11206   0.11671   0.13688   0.14459   0.15332

  Beta  occ. eigenvalues --  -88.94353 -14.31717 -10.21192  -8.01652  -5.97798
  Beta  occ. eigenvalues --   -5.97777  -5.97376  -0.93058  -0.76851  -0.61177
  Beta  occ. eigenvalues --   -0.50091  -0.47375  -0.39034  -0.36069  -0.30306
  Beta  occ. eigenvalues --   -0.24437
  Beta virt. eigenvalues --   -0.07765  -0.00412   0.00524   0.01675   0.02871
  Beta virt. eigenvalues --    0.03844   0.05549   0.06434   0.08726   0.10723
  Beta virt. eigenvalues --    0.11206   0.11671   0.13688   0.14459   0.15332

 Mulliken charges and spin densities:
               1          2
     1  C   -0.235462   0.000000
     2  S    0.305573   0.000000
     3  N   -0.460305  -0.000000
     4  H    0.131675  -0.000000
     5  H    0.105431  -0.000000
     6  H    0.153088  -0.000000
 Sum of Mulliken charges =  -0.00000   0.00000

 Dipole moment (field-independent basis, Debye):
    X=             -2.5196    Y=             -0.2450    Z=             -0.1014  Tot=              2.5335
 Quadrupole moment (field-independent basis, Debye-Ang):
   XX=            -38.8928   YY=            -24.5492   ZZ=            -25.9385
   XY=             -3.1567   XZ=             -1.8982   YZ=              1.8056

 ESP charges:
               1
     1  C   -0.470735
     2  S    0.346105
     3  N   -0.611831
     4  H    0.179605
     5  H    0.214827
     6  H    0.342029
 Sum of ESP charges =   0.00000

 Summary of Natural Population Analysis:

                                       Natural Population
                Natural  -----------------------------------------------
    Atom  No    Charge         Core      Valence    Rydberg      Total
 -----------------------------------------------------------------------
      C    1   -0.39884      0.99978     2.38548    0.01357     3.39884
      S    2    0.49304      4.99928     2.44549    0.06219     7.50696
      N    3   -0.50009      0.99986     2.97579    0.02445     4.00009
      H    4    0.11663      0.00000     0.38093    0.00243     0.38337
      H    5    0.11188      0.00000     0.38593    0.00219     0.38812
      H    6    0.17739      0.00000     0.32052    0.00210     0.32261
 =======================================================================
   * Total *   -0.00000      6.99892     8.89415    0.10693    16.00000

 Normal termination of Gaussian 16 at Tue Jan  3 09:23:49 2023.
