 Gaussian 16, Revision C.01,

 ----------------------------------------------------------------------
 #p ub3lyp/gen stable=opt scf=(maxcycle=900,verytightlineq,xqc) integra
 l=grid=ultrafine symmetry=None density=current iop(99/18=-1) output=wf
 n
 ----------------------------------------------------------------------

 0004_q000_m01_k00_opt_uwb97xd_def2svpd/0004_q000_m01_k00_force_ub3lyp_
 def2tzvpd stable-force
 ----------------------------------------------------------------------
 Symbolic Z-matrix:
 Charge =  0 Multiplicity = 1

 SCF Done:  E(UB3LYP) =  -492.854242293     A.U. after   11 cycles
 Normal termination of Gaussian 16 at Tue Jan  3 09:07:59 2023.
 Gaussian 16:  ES64L-G16RevC.01  3-Jul-2019

 ----------------------------------------------------------------------
 #p ub3lyp/chkbasis force guess=read geom=check scf=(maxcycle=900,veryt
 ightlineq,xqc) integral=grid=ultrafine symmetry=None density=current p
 op=(cm5,hlygat,mbs,npa) output=wfx
 ----------------------------------------------------------------------

 0004_q000_m01_k00_opt_uwb97xd_def2svpd/0004_q000_m01_k00_force_ub3lyp_
 def2tzvpd stable-force
 ----------------------------------------------------------------------
 Structure from the checkpoint file:  "0004_q000_m01_k00_force_ub3lyp_def2tzvpd.chk"
 Charge =  0 Multiplicity = 1

                          Input orientation:
 ---------------------------------------------------------------------
 Center     Atomic      Atomic             Coordinates (Angstroms)
 Number     Number       Type             X           Y           Z
 ---------------------------------------------------------------------
      1          6           0        0.888294    0.142235    0.108926
      2         16           0        2.506724    0.104170    0.044890
      3          7           0        3.303240    1.229897    0.770762
      4          1           0        0.375274   -0.665334   -0.413229
      5          1           0        0.324276    0.914865    0.633860
      6          1           0        2.713842    1.920118    1.241851
 ---------------------------------------------------------------------

 SCF Done:  E(UB3LYP) =  -492.854242293     A.U. after    1 cycles

 Alpha  occ. eigenvalues --  -88.94738 -14.31655 -10.20986  -8.01593  -5.97744
 Alpha  occ. eigenvalues --   -5.97688  -5.97289  -0.93109  -0.76873  -0.61183
 Alpha  occ. eigenvalues --   -0.50109  -0.47381  -0.39023  -0.36063  -0.30281
 Alpha  occ. eigenvalues --   -0.24406
 Alpha virt. eigenvalues --   -0.07701   0.00109   0.00878   0.02163   0.03712
 Alpha virt. eigenvalues --    0.04388   0.06393   0.07390   0.09796   0.12339
 Alpha virt. eigenvalues --    0.12643   0.12795   0.16026   0.17254   0.18626

  Beta  occ. eigenvalues --  -88.94738 -14.31655 -10.20986  -8.01593  -5.97744
  Beta  occ. eigenvalues --   -5.97688  -5.97289  -0.93109  -0.76873  -0.61183
  Beta  occ. eigenvalues --   -0.50109  -0.47381  -0.39023  -0.36063  -0.30281
  Beta  occ. eigenvalues --   -0.24406
  Beta virt. eigenvalues --   -0.07701   0.00109   0.00878   0.02163   0.03712
  Beta virt. eigenvalues --    0.04388   0.06393   0.07390   0.09796   0.12339
  Beta virt. eigenvalues --    0.12643   0.12795   0.16026   0.17254   0.18626

 Mulliken charges and spin densities:
               1          2
     1  C   -0.439286   0.000000
     2  S    0.254556  -0.000000
     3  N   -0.476484   0.000000
     4  H    0.231856  -0.000000
     5  H    0.226887  -0.000000
     6  H    0.202471  -0.000000
 Sum of Mulliken charges =  -0.00000   0.00000

 Dipole moment (field-independent basis, Debye):
    X=             -2.5157    Y=             -0.2390    Z=             -0.0976  Tot=              2.5289
 Quadrupole moment (field-independent basis, Debye-Ang):
   XX=            -38.8362   YY=            -24.5443   ZZ=            -25.9557
   XY=             -3.1328   XZ=             -1.8845   YZ=              1.8308

 ESP charges:
               1
     1  C   -0.483367
     2  S    0.347665
     3  N   -0.611273
     4  H    0.184716
     5  H    0.219796
     6  H    0.342463
 Sum of ESP charges =   0.00000

 Summary of Natural Population Analysis:

                                       Natural Population
                Natural  -----------------------------------------------
    Atom  No    Charge         Core      Valence    Rydberg      Total
 -----------------------------------------------------------------------
      C    1   -0.39650      0.99977     2.38271    0.01402     3.39650
      S    2    0.48979      4.99927     2.44986    0.06108     7.51021
      N    3   -0.49181      0.99985     2.96656    0.02540     3.99181
      H    4    0.11562      0.00000     0.38178    0.00259     0.38438
      H    5    0.10986      0.00000     0.38811    0.00203     0.39014
      H    6    0.17304      0.00000     0.32516    0.00180     0.32696
 =======================================================================
   * Total *    0.00000      6.99890     8.89418    0.10692    16.00000

 Normal termination of Gaussian 16 at Tue Jan  3 09:08:15 2023.
