 Gaussian 16, Revision C.01,

 ----------------------------------------------------------------------
 #p uhf/gen stable=opt scf=(maxcycle=900,verytightlineq,xqc) integral=g
 rid=ultrafine symmetry=None density=current iop(99/18=-1) output=wfn
 ----------------------------------------------------------------------

 0004_q000_m01_k00_opt_uwb97xd_def2svpd/0004_q000_m01_k00_force_uhf_def
 2tzvpd stable-force
 ----------------------------------------------------------------------
 Symbolic Z-matrix:
 Charge =  0 Multiplicity = 1

 SCF Done:  E(UHF) =  -491.548741001     A.U. after   14 cycles
 SCF Done:  E(UHF) =  -491.560127251     a.u. after   10 cycles
 Normal termination of Gaussian 16 at Tue Jan  3 09:07:09 2023.
 Gaussian 16:  ES64L-G16RevC.01  3-Jul-2019

 ----------------------------------------------------------------------
 #p uhf/chkbasis force guess=read geom=check scf=(maxcycle=900,verytigh
 tlineq,xqc) integral=grid=ultrafine symmetry=None density=current pop=
 (cm5,hlygat,mbs,npa) output=wfx
 ----------------------------------------------------------------------

 0004_q000_m01_k00_opt_uwb97xd_def2svpd/0004_q000_m01_k00_force_uhf_def
 2tzvpd stable-force
 ----------------------------------------------------------------------
 Structure from the checkpoint file:  "0004_q000_m01_k00_force_uhf_def2tzvpd.chk"
 Charge =  0 Multiplicity = 1

                          Input orientation:
 ---------------------------------------------------------------------
 Center     Atomic      Atomic             Coordinates (Angstroms)
 Number     Number       Type             X           Y           Z
 ---------------------------------------------------------------------
      1          6           0        0.888294    0.142235    0.108926
      2         16           0        2.506724    0.104170    0.044890
      3          7           0        3.303240    1.229897    0.770762
      4          1           0        0.375274   -0.665334   -0.413229
      5          1           0        0.324276    0.914865    0.633860
      6          1           0        2.713842    1.920118    1.241851
 ---------------------------------------------------------------------

 SCF Done:  E(UHF) =  -491.560127251     A.U. after    1 cycles

 Alpha  occ. eigenvalues --  -92.02714 -15.58184 -11.25286  -9.02604  -6.70950
 Alpha  occ. eigenvalues --   -6.70785  -6.70568  -1.23858  -1.01897  -0.80473
 Alpha  occ. eigenvalues --   -0.66437  -0.63166  -0.55862  -0.50163  -0.45401
 Alpha  occ. eigenvalues --   -0.36928
 Alpha virt. eigenvalues --    0.06377   0.06959   0.07548   0.07878   0.09544
 Alpha virt. eigenvalues --    0.13546   0.14581   0.15465   0.19328   0.21277
 Alpha virt. eigenvalues --    0.21716   0.23570   0.26151   0.27142   0.27469

  Beta  occ. eigenvalues --  -92.02522 -15.56010 -11.27142  -9.02422  -6.70654
  Beta  occ. eigenvalues --   -6.70496  -6.70190  -1.20476  -1.02701  -0.81043
  Beta  occ. eigenvalues --   -0.66244  -0.63917  -0.51209  -0.48618  -0.43983
  Beta  occ. eigenvalues --   -0.34413
  Beta virt. eigenvalues --    0.06376   0.06813   0.07885   0.08187   0.08608
  Beta virt. eigenvalues --    0.13532   0.14624   0.15566   0.19301   0.21729
  Beta virt. eigenvalues --    0.22649   0.23474   0.23920   0.26105   0.27651

 Mulliken charges and spin densities:
               1          2
     1  C   -0.323769  -0.890332
     2  S    0.223948   0.205938
     3  N   -0.454527   0.632648
     4  H    0.181730   0.037566
     5  H    0.177481   0.060547
     6  H    0.195138  -0.046367
 Sum of Mulliken charges =  -0.00000   0.00000

 Dipole moment (field-independent basis, Debye):
    X=             -2.8274    Y=              0.0644    Z=              0.1107  Tot=              2.8303
 Quadrupole moment (field-independent basis, Debye-Ang):
   XX=            -39.9926   YY=            -24.1823   ZZ=            -25.9011
   XY=             -2.1828   XZ=             -1.2430   YZ=              2.1624

 ESP charges:
               1
     1  C   -0.391968
     2  S    0.230173
     3  N   -0.582959
     4  H    0.179381
     5  H    0.199984
     6  H    0.365389
 Sum of ESP charges =   0.00000

 Summary of Natural Population Analysis:

                                       Natural Population
                Natural  -----------------------------------------------
    Atom  No    Charge         Core      Valence    Rydberg      Total
 -----------------------------------------------------------------------
      C    1   -0.73881      0.99979     2.72273    0.01629     3.73881
      S    2    0.51436      4.99933     2.42327    0.06304     7.48564
      N    3   -0.17339      0.99986     2.64289    0.03064     3.67339
      H    4    0.12380      0.00000     0.37424    0.00196     0.37620
      H    5    0.11817      0.00000     0.37995    0.00188     0.38183
      H    6    0.15587      0.00000     0.34270    0.00143     0.34413
 =======================================================================
   * Total *   -0.00000      6.99898     8.88577    0.11524    16.00000

 Normal termination of Gaussian 16 at Tue Jan  3 09:07:22 2023.
