 Gaussian 16, Revision C.01,

 ----------------------------------------------------------------------
 #p uhf/gen stable=opt scf=(maxcycle=900,verytightlineq,xqc) integral=g
 rid=ultrafine symmetry=None density=current iop(99/18=-1) output=wfn
 ----------------------------------------------------------------------

 0004_q000_m01_k00_opt_uwb97xd_def2svpd/0004_q000_m01_k00_force_uhf_def
 2svpd stable-force
 ----------------------------------------------------------------------
 Symbolic Z-matrix:
 Charge =  0 Multiplicity = 1

 SCF Done:  E(UHF) =  -491.294355947     A.U. after   14 cycles
 SCF Done:  E(UHF) =  -491.307505260     a.u. after   10 cycles
 Normal termination of Gaussian 16 at Tue Jan  3 09:06:37 2023.
 Gaussian 16:  ES64L-G16RevC.01  3-Jul-2019

 ----------------------------------------------------------------------
 #p uhf/chkbasis force guess=read geom=check scf=(maxcycle=900,verytigh
 tlineq,xqc) integral=grid=ultrafine symmetry=None density=current pop=
 (cm5,hlygat,mbs,npa) output=wfx
 ----------------------------------------------------------------------

 0004_q000_m01_k00_opt_uwb97xd_def2svpd/0004_q000_m01_k00_force_uhf_def
 2svpd stable-force
 ----------------------------------------------------------------------
 Structure from the checkpoint file:  "0004_q000_m01_k00_force_uhf_def2svpd.chk"
 Charge =  0 Multiplicity = 1

                          Input orientation:
 ---------------------------------------------------------------------
 Center     Atomic      Atomic             Coordinates (Angstroms)
 Number     Number       Type             X           Y           Z
 ---------------------------------------------------------------------
      1          6           0        0.888294    0.142235    0.108926
      2         16           0        2.506724    0.104170    0.044890
      3          7           0        3.303240    1.229897    0.770762
      4          1           0        0.375274   -0.665334   -0.413229
      5          1           0        0.324276    0.914865    0.633860
      6          1           0        2.713842    1.920118    1.241851
 ---------------------------------------------------------------------

 SCF Done:  E(UHF) =  -491.307505260     A.U. after    1 cycles

 Alpha  occ. eigenvalues --  -92.00550 -15.56412 -11.27873  -9.03326  -6.72230
 Alpha  occ. eigenvalues --   -6.71939  -6.71647  -1.20418  -1.02150  -0.80961
 Alpha  occ. eigenvalues --   -0.66806  -0.64306  -0.51638  -0.48907  -0.43880
 Alpha  occ. eigenvalues --   -0.34517
 Alpha virt. eigenvalues --    0.08845   0.08871   0.09623   0.10803   0.12432
 Alpha virt. eigenvalues --    0.15005   0.18195   0.19730   0.24563   0.26799
 Alpha virt. eigenvalues --    0.27003   0.29326   0.29866   0.31735   0.32560

  Beta  occ. eigenvalues --  -92.00710 -15.58782 -11.25825  -9.03495  -6.72328
  Beta  occ. eigenvalues --   -6.72314  -6.72026  -1.23772  -1.01556  -0.80329
  Beta  occ. eigenvalues --   -0.66944  -0.63495  -0.56473  -0.50566  -0.45440
  Beta  occ. eigenvalues --   -0.37119
  Beta virt. eigenvalues --    0.08934   0.09115   0.09611   0.10864   0.12723
  Beta virt. eigenvalues --    0.15156   0.18064   0.19366   0.25141   0.25627
  Beta virt. eigenvalues --    0.26990   0.29344   0.31990   0.32873   0.33446

 Mulliken charges and spin densities:
               1          2
     1  C    0.165210   0.989513
     2  S    0.099885  -0.186706
     3  N   -0.368130  -0.648852
     4  H    0.003727  -0.096885
     5  H    0.035264  -0.099423
     6  H    0.064045   0.042353
 Sum of Mulliken charges =  -0.00000   0.00000

 Dipole moment (field-independent basis, Debye):
    X=             -2.8498    Y=              0.1293    Z=              0.1542  Tot=              2.8569
 Quadrupole moment (field-independent basis, Debye-Ang):
   XX=            -40.2180   YY=            -24.2696   ZZ=            -26.0606
   XY=             -1.9360   XZ=             -1.0800   YZ=              2.2383

 ESP charges:
               1
     1  C   -0.380507
     2  S    0.208678
     3  N   -0.575381
     4  H    0.180706
     5  H    0.196618
     6  H    0.369885
 Sum of ESP charges =   0.00000

 Summary of Natural Population Analysis:

                                       Natural Population
                Natural  -----------------------------------------------
    Atom  No    Charge         Core      Valence    Rydberg      Total
 -----------------------------------------------------------------------
      C    1    0.06441      0.99979     1.92155    0.01425     2.93559
      S    2    0.33515      4.99929     2.61027    0.05529     7.66485
      N    3   -0.77475      0.99986     3.25232    0.02257     4.27475
      H    4    0.09433      0.00000     0.40227    0.00340     0.40567
      H    5    0.08486      0.00000     0.41218    0.00297     0.41514
      H    6    0.19600      0.00000     0.30116    0.00285     0.30400
 =======================================================================
   * Total *   -0.00000      6.99894     8.89974    0.10132    16.00000

 Normal termination of Gaussian 16 at Tue Jan  3 09:06:43 2023.
