 Gaussian 16, Revision C.01,

 ----------------------------------------------------------------------
 #p uwb97xd/gen stable=opt scf=(maxcycle=900,verytightlineq,xqc) integr
 al=grid=ultrafine symmetry=None density=current iop(99/18=-1) output=w
 fn
 ----------------------------------------------------------------------

 0004_q000_m01_k00_opt_uwb97xd_def2svpd/0004_q000_m01_k00_force_uwb97xd
 _def2svp stable-force
 ----------------------------------------------------------------------
 Symbolic Z-matrix:
 Charge =  0 Multiplicity = 1

 SCF Done:  E(UwB97XD) =  -492.525833043     A.U. after   16 cycles

 1\1\GINC-GRA1106\Stability\UwB97XD\Gen\C1H3N1S1\BHAVUK\03-Jan-2023\0\\
 #p uwb97xd/gen stable=opt scf=(maxcycle=900,verytightlineq,xqc) integr
 al=grid=ultrafine symmetry=None density=current iop(99/18=-1) output=w
 fn\\0004_q000_m01_k00_opt_uwb97xd_def2svpd/0004_q000_m01_k00_force_uwb
 97xd_def2svp stable-force\\0,1\C,0,0.8882935141,0.1422345627,0.1089263
 123\S,0,2.5067242222,0.1041696479,0.0448895292\N,0,3.3032398974,1.2298
 974173,0.7707622237\H,0,0.3752741579,-0.6653344173,-0.4132293362\H,0,0
 .3242760911,0.9148647349,0.6338600998\H,0,2.7138421188,1.9201180545,1.

 Normal termination of Gaussian 16 at Tue Jan  3 09:07:08 2023.
 Gaussian 16:  ES64L-G16RevC.01  3-Jul-2019

 ----------------------------------------------------------------------
 #p uwb97xd/chkbasis force guess=read geom=check scf=(maxcycle=900,very
 tightlineq,xqc) integral=grid=ultrafine symmetry=None density=current
 pop=(cm5,hlygat,mbs,npa) output=wfx
 ----------------------------------------------------------------------

 0004_q000_m01_k00_opt_uwb97xd_def2svpd/0004_q000_m01_k00_force_uwb97xd
 _def2svp stable-force
 ----------------------------------------------------------------------
 Structure from the checkpoint file:  "0004_q000_m01_k00_force_uwb97xd_def2svp.chk"
 Charge =  0 Multiplicity = 1

                          Input orientation:
 ---------------------------------------------------------------------
 Center     Atomic      Atomic             Coordinates (Angstroms)
 Number     Number       Type             X           Y           Z
 ---------------------------------------------------------------------
      1          6           0        0.888294    0.142235    0.108926
      2         16           0        2.506724    0.104170    0.044890
      3          7           0        3.303240    1.229897    0.770762
      4          1           0        0.375274   -0.665334   -0.413229
      5          1           0        0.324276    0.914865    0.633860
      6          1           0        2.713842    1.920118    1.241851
 ---------------------------------------------------------------------

 SCF Done:  E(UwB97XD) =  -492.525833043     A.U. after    1 cycles

 Alpha  occ. eigenvalues --  -89.10471 -14.43325 -10.32852  -8.15010  -6.10300
 Alpha  occ. eigenvalues --   -6.10104  -6.09736  -1.02650  -0.85727  -0.69446
 Alpha  occ. eigenvalues --   -0.58211  -0.55537  -0.47515  -0.43816  -0.36867
 Alpha  occ. eigenvalues --   -0.30787
 Alpha virt. eigenvalues --    0.00386   0.13073   0.15008   0.16702   0.21728
 Alpha virt. eigenvalues --    0.28634   0.38882   0.48603   0.54867   0.57784
 Alpha virt. eigenvalues --    0.58103   0.67722   0.67987   0.71413   0.72443

  Beta  occ. eigenvalues --  -89.10471 -14.43325 -10.32852  -8.15010  -6.10300
  Beta  occ. eigenvalues --   -6.10104  -6.09736  -1.02650  -0.85727  -0.69446
  Beta  occ. eigenvalues --   -0.58211  -0.55537  -0.47515  -0.43816  -0.36867
  Beta  occ. eigenvalues --   -0.30787
  Beta virt. eigenvalues --    0.00386   0.13073   0.15008   0.16702   0.21728
  Beta virt. eigenvalues --    0.28634   0.38882   0.48603   0.54867   0.57784
  Beta virt. eigenvalues --    0.58103   0.67722   0.67987   0.71413   0.72443

 Mulliken charges and spin densities:
               1          2
     1  C   -0.290197   0.000000
     2  S    0.388048   0.000000
     3  N   -0.441801   0.000000
     4  H    0.105562   0.000000
     5  H    0.101455   0.000000
     6  H    0.136932   0.000000
 Sum of Mulliken charges =   0.00000   0.00000

 Dipole moment (field-independent basis, Debye):
    X=             -2.5207    Y=             -0.2624    Z=             -0.1128  Tot=              2.5368
 Quadrupole moment (field-independent basis, Debye-Ang):
   XX=            -39.0713   YY=            -23.9075   ZZ=            -25.1827
   XY=             -3.2353   XZ=             -1.9256   YZ=              1.6739

 ESP charges:
               1
     1  C   -0.421585
     2  S    0.360352
     3  N   -0.656386
     4  H    0.159912
     5  H    0.185234
     6  H    0.372473
 Sum of ESP charges =   0.00000

 Summary of Natural Population Analysis:

                                       Natural Population
                Natural  -----------------------------------------------
    Atom  No    Charge         Core      Valence    Rydberg      Total
 -----------------------------------------------------------------------
      C    1   -0.39450      0.99968     2.38513    0.00969     3.39450
      S    2    0.47037      4.99925     2.47777    0.05261     7.52963
      N    3   -0.48769      0.99981     2.97953    0.00835     3.98769
      H    4    0.12032      0.00000     0.37856    0.00111     0.37968
      H    5    0.11420      0.00000     0.38461    0.00119     0.38580
      H    6    0.17730      0.00000     0.31982    0.00288     0.32270
 =======================================================================
   * Total *   -0.00000      6.99874     8.92541    0.07585    16.00000

 Normal termination of Gaussian 16 at Tue Jan  3 09:07:14 2023.
