 Gaussian 16, Revision C.01,

 ----------------------------------------------------------------------
 #p ub3lyp/gen stable=opt scf=(maxcycle=900,verytightlineq,xqc) integra
 l=grid=ultrafine symmetry=None density=current iop(99/18=-1) output=wf
 n
 ----------------------------------------------------------------------

 0004_q000_m01_k00_opt_uwb97xd_def2svpd/0004_q000_m01_k00_force_ub3lyp_
 def2svp stable-force
 ----------------------------------------------------------------------
 Symbolic Z-matrix:
 Charge =  0 Multiplicity = 1

 SCF Done:  E(UB3LYP) =  -492.582925492     A.U. after   14 cycles
 Normal termination of Gaussian 16 at Tue Jan  3 09:06:28 2023.
 Gaussian 16:  ES64L-G16RevC.01  3-Jul-2019

 ----------------------------------------------------------------------
 #p ub3lyp/chkbasis force guess=read geom=check scf=(maxcycle=900,veryt
 ightlineq,xqc) integral=grid=ultrafine symmetry=None density=current p
 op=(cm5,hlygat,mbs,npa) output=wfx
 ----------------------------------------------------------------------

 0004_q000_m01_k00_opt_uwb97xd_def2svpd/0004_q000_m01_k00_force_ub3lyp_
 def2svp stable-force
 ----------------------------------------------------------------------
 Structure from the checkpoint file:  "0004_q000_m01_k00_force_ub3lyp_def2svp.chk"
 Charge =  0 Multiplicity = 1

                          Input orientation:
 ---------------------------------------------------------------------
 Center     Atomic      Atomic             Coordinates (Angstroms)
 Number     Number       Type             X           Y           Z
 ---------------------------------------------------------------------
      1          6           0        0.888294    0.142235    0.108926
      2         16           0        2.506724    0.104170    0.044890
      3          7           0        3.303240    1.229897    0.770762
      4          1           0        0.375274   -0.665334   -0.413229
      5          1           0        0.324276    0.914865    0.633860
      6          1           0        2.713842    1.920118    1.241851
 ---------------------------------------------------------------------

 SCF Done:  E(UB3LYP) =  -492.582925492     A.U. after    1 cycles

 Alpha  occ. eigenvalues --  -88.93415 -14.31538 -10.21399  -8.02354  -5.99107
 Alpha  occ. eigenvalues --   -5.98906  -5.98550  -0.92509  -0.75833  -0.60159
 Alpha  occ. eigenvalues --   -0.49566  -0.46709  -0.38703  -0.35509  -0.28651
 Alpha  occ. eigenvalues --   -0.23261
 Alpha virt. eigenvalues --   -0.06419   0.05342   0.06828   0.08608   0.13697
 Alpha virt. eigenvalues --    0.20252   0.31218   0.40007   0.46771   0.49268
 Alpha virt. eigenvalues --    0.49529   0.58793   0.59822   0.63165   0.63419

  Beta  occ. eigenvalues --  -88.93415 -14.31538 -10.21399  -8.02354  -5.99107
  Beta  occ. eigenvalues --   -5.98906  -5.98550  -0.92509  -0.75833  -0.60159
  Beta  occ. eigenvalues --   -0.49566  -0.46709  -0.38703  -0.35509  -0.28651
  Beta  occ. eigenvalues --   -0.23261
  Beta virt. eigenvalues --   -0.06419   0.05342   0.06828   0.08608   0.13697
  Beta virt. eigenvalues --    0.20252   0.31218   0.40007   0.46771   0.49268
  Beta virt. eigenvalues --    0.49529   0.58793   0.59822   0.63165   0.63419

 Mulliken charges and spin densities:
               1          2
     1  C   -0.232899   0.000000
     2  S    0.375326  -0.000000
     3  N   -0.407117   0.000000
     4  H    0.075223  -0.000000
     5  H    0.072285  -0.000000
     6  H    0.117181   0.000000
 Sum of Mulliken charges =  -0.00000  -0.00000

 Dipole moment (field-independent basis, Debye):
    X=             -2.3627    Y=             -0.2448    Z=             -0.1050  Tot=              2.3776
 Quadrupole moment (field-independent basis, Debye-Ang):
   XX=            -38.4351   YY=            -23.9791   ZZ=            -25.1849
   XY=             -3.0845   XZ=             -1.8340   YZ=              1.5845

 ESP charges:
               1
     1  C   -0.389759
     2  S    0.347785
     3  N   -0.631989
     4  H    0.145128
     5  H    0.169070
     6  H    0.359765
 Sum of ESP charges =   0.00000

 Summary of Natural Population Analysis:

                                       Natural Population
                Natural  -----------------------------------------------
    Atom  No    Charge         Core      Valence    Rydberg      Total
 -----------------------------------------------------------------------
      C    1   -0.38839      0.99967     2.37906    0.00966     3.38839
      S    2    0.46315      4.99924     2.48634    0.05127     7.53685
      N    3   -0.47641      0.99980     2.96833    0.00827     3.97641
      H    4    0.11739      0.00000     0.38125    0.00136     0.38261
      H    5    0.11093      0.00000     0.38765    0.00143     0.38907
      H    6    0.17333      0.00000     0.32354    0.00314     0.32667
 =======================================================================
   * Total *   -0.00000      6.99872     8.92615    0.07513    16.00000

 Normal termination of Gaussian 16 at Tue Jan  3 09:06:34 2023.
