 Gaussian 16, Revision C.01,

 ----------------------------------------------------------------------
 #p uhf/gen stable=opt scf=(maxcycle=900,verytightlineq,xqc) integral=g
 rid=ultrafine symmetry=None density=current iop(99/18=-1) output=wfn
 ----------------------------------------------------------------------

 0004_q000_m01_k00_opt_uwb97xd_def2svpd/0004_q000_m01_k00_force_uhf_def
 2svp stable-force
 ----------------------------------------------------------------------
 Symbolic Z-matrix:
 Charge =  0 Multiplicity = 1

 SCF Done:  E(UHF) =  -491.275618009     A.U. after   13 cycles
 SCF Done:  E(UHF) =  -491.291895732     a.u. after   11 cycles
 Normal termination of Gaussian 16 at Tue Jan  3 09:06:28 2023.
 Gaussian 16:  ES64L-G16RevC.01  3-Jul-2019

 ----------------------------------------------------------------------
 #p uhf/chkbasis force guess=read geom=check scf=(maxcycle=900,verytigh
 tlineq,xqc) integral=grid=ultrafine symmetry=None density=current pop=
 (cm5,hlygat,mbs,npa) output=wfx
 ----------------------------------------------------------------------

 0004_q000_m01_k00_opt_uwb97xd_def2svpd/0004_q000_m01_k00_force_uhf_def
 2svp stable-force
 ----------------------------------------------------------------------
 Structure from the checkpoint file:  "0004_q000_m01_k00_force_uhf_def2svp.chk"
 Charge =  0 Multiplicity = 1

                          Input orientation:
 ---------------------------------------------------------------------
 Center     Atomic      Atomic             Coordinates (Angstroms)
 Number     Number       Type             X           Y           Z
 ---------------------------------------------------------------------
      1          6           0        0.888294    0.142235    0.108926
      2         16           0        2.506724    0.104170    0.044890
      3          7           0        3.303240    1.229897    0.770762
      4          1           0        0.375274   -0.665334   -0.413229
      5          1           0        0.324276    0.914865    0.633860
      6          1           0        2.713842    1.920118    1.241851
 ---------------------------------------------------------------------

 SCF Done:  E(UHF) =  -491.291895732     A.U. after    1 cycles

 Alpha  occ. eigenvalues --  -91.98841 -15.58237 -11.25053  -9.02228  -6.71040
 Alpha  occ. eigenvalues --   -6.70929  -6.70743  -1.23602  -1.01118  -0.79860
 Alpha  occ. eigenvalues --   -0.66472  -0.63044  -0.56478  -0.50086  -0.44930
 Alpha  occ. eigenvalues --   -0.36752
 Alpha virt. eigenvalues --    0.11493   0.18153   0.20624   0.21904   0.30125
 Alpha virt. eigenvalues --    0.37099   0.48757   0.58844   0.67174   0.69679
 Alpha virt. eigenvalues --    0.75586   0.80853   0.84937   0.87502   0.88217

  Beta  occ. eigenvalues --  -91.98723 -15.55731 -11.27140  -9.02107  -6.70981
  Beta  occ. eigenvalues --   -6.70666  -6.70439  -1.20031  -1.01674  -0.80662
  Beta  occ. eigenvalues --   -0.66323  -0.63888  -0.51543  -0.48435  -0.43408
  Beta  occ. eigenvalues --   -0.33915
  Beta virt. eigenvalues --    0.11612   0.18129   0.20530   0.21613   0.30140
  Beta virt. eigenvalues --    0.36871   0.48646   0.58130   0.66273   0.66587
  Beta virt. eigenvalues --    0.68784   0.80947   0.84660   0.85577   0.88123

 Mulliken charges and spin densities:
               1          2
     1  C   -0.233927  -0.931823
     2  S    0.301629   0.131257
     3  N   -0.423560   0.704417
     4  H    0.109420   0.067184
     5  H    0.097943   0.069832
     6  H    0.148494  -0.040867
 Sum of Mulliken charges =  -0.00000   0.00000

 Dipole moment (field-independent basis, Debye):
    X=             -2.7933    Y=              0.1681    Z=              0.1786  Tot=              2.8040
 Quadrupole moment (field-independent basis, Debye-Ang):
   XX=            -40.4745   YY=            -23.8226   ZZ=            -25.4507
   XY=             -1.9272   XZ=             -1.0482   YZ=              2.0488

 ESP charges:
               1
     1  C   -0.296735
     2  S    0.211120
     3  N   -0.608489
     4  H    0.141358
     5  H    0.156181
     6  H    0.396564
 Sum of ESP charges =   0.00000

 Summary of Natural Population Analysis:

                                       Natural Population
                Natural  -----------------------------------------------
    Atom  No    Charge         Core      Valence    Rydberg      Total
 -----------------------------------------------------------------------
      C    1   -0.74225      0.99971     2.73136    0.01119     3.74225
      S    2    0.43492      4.99934     2.50950    0.05625     7.56508
      N    3   -0.09851      0.99983     2.58902    0.00966     3.59851
      H    4    0.12819      0.00000     0.37048    0.00133     0.37181
      H    5    0.12072      0.00000     0.37777    0.00151     0.37928
      H    6    0.15695      0.00000     0.33988    0.00317     0.34305
 =======================================================================
   * Total *    0.00000      6.99887     8.91800    0.08312    16.00000

 Normal termination of Gaussian 16 at Tue Jan  3 09:06:33 2023.
