 Gaussian 16, Revision C.01,

 ----------------------------------------------------------------------
 #p ub3lyp/gen stable=opt scf=(maxcycle=900,verytightlineq,xqc) integra
 l=grid=ultrafine symmetry=None density=current iop(99/18=-1) output=wf
 n
 ----------------------------------------------------------------------

 0004_q000_m01_k00_opt_uwb97xd_def2svpd/0004_q000_m01_k00_force_ub3lyp_
 def2svpd stable-force
 ----------------------------------------------------------------------
 Symbolic Z-matrix:
 Charge =  0 Multiplicity = 1

 SCF Done:  E(UB3LYP) =  -492.602303475     A.U. after   11 cycles
 Normal termination of Gaussian 16 at Tue Jan  3 09:06:49 2023.
 Gaussian 16:  ES64L-G16RevC.01  3-Jul-2019

 ----------------------------------------------------------------------
 #p ub3lyp/chkbasis force guess=read geom=check scf=(maxcycle=900,veryt
 ightlineq,xqc) integral=grid=ultrafine symmetry=None density=current p
 op=(cm5,hlygat,mbs,npa) output=wfx
 ----------------------------------------------------------------------

 0004_q000_m01_k00_opt_uwb97xd_def2svpd/0004_q000_m01_k00_force_ub3lyp_
 def2svpd stable-force
 ----------------------------------------------------------------------
 Structure from the checkpoint file:  "0004_q000_m01_k00_force_ub3lyp_def2svpd.chk"
 Charge =  0 Multiplicity = 1

                          Input orientation:
 ---------------------------------------------------------------------
 Center     Atomic      Atomic             Coordinates (Angstroms)
 Number     Number       Type             X           Y           Z
 ---------------------------------------------------------------------
      1          6           0        0.888294    0.142235    0.108926
      2         16           0        2.506724    0.104170    0.044890
      3          7           0        3.303240    1.229897    0.770762
      4          1           0        0.375274   -0.665334   -0.413229
      5          1           0        0.324276    0.914865    0.633860
      6          1           0        2.713842    1.920118    1.241851
 ---------------------------------------------------------------------

 SCF Done:  E(UB3LYP) =  -492.602303475     A.U. after    1 cycles

 Alpha  occ. eigenvalues --  -88.95302 -14.32769 -10.22457  -8.03600  -6.00396
 Alpha  occ. eigenvalues --   -6.00196  -5.99834  -0.93320  -0.76687  -0.61003
 Alpha  occ. eigenvalues --   -0.50470  -0.47555  -0.39423  -0.36308  -0.30026
 Alpha  occ. eigenvalues --   -0.24403
 Alpha virt. eigenvalues --   -0.07770   0.01016   0.02114   0.03634   0.05545
 Alpha virt. eigenvalues --    0.05904   0.08143   0.08892   0.13244   0.15025
 Alpha virt. eigenvalues --    0.16179   0.16812   0.20438   0.21547   0.21969

  Beta  occ. eigenvalues --  -88.95302 -14.32769 -10.22457  -8.03600  -6.00396
  Beta  occ. eigenvalues --   -6.00196  -5.99834  -0.93320  -0.76687  -0.61003
  Beta  occ. eigenvalues --   -0.50470  -0.47555  -0.39423  -0.36308  -0.30026
  Beta  occ. eigenvalues --   -0.24403
  Beta virt. eigenvalues --   -0.07770   0.01016   0.02114   0.03634   0.05545
  Beta virt. eigenvalues --    0.05904   0.08143   0.08892   0.13244   0.15025
  Beta virt. eigenvalues --    0.16179   0.16812   0.20438   0.21547   0.21969

 Mulliken charges and spin densities:
               1          2
     1  C    0.560818  -0.000000
     2  S    0.085530  -0.000000
     3  N   -0.210039   0.000000
     4  H   -0.231459   0.000000
     5  H   -0.175831   0.000000
     6  H   -0.029019  -0.000000
 Sum of Mulliken charges =  -0.00000  -0.00000

 Dipole moment (field-independent basis, Debye):
    X=             -2.5467    Y=             -0.2264    Z=             -0.0884  Tot=              2.5582
 Quadrupole moment (field-independent basis, Debye-Ang):
   XX=            -39.0864   YY=            -24.6485   ZZ=            -26.0369
   XY=             -3.0479   XZ=             -1.8248   YZ=              1.7997

 ESP charges:
               1
     1  C   -0.454705
     2  S    0.331884
     3  N   -0.607678
     4  H    0.178163
     5  H    0.209949
     6  H    0.342388
 Sum of ESP charges =   0.00000

 Summary of Natural Population Analysis:

                                       Natural Population
                Natural  -----------------------------------------------
    Atom  No    Charge         Core      Valence    Rydberg      Total
 -----------------------------------------------------------------------
      C    1   -0.39779      0.99977     2.38601    0.01202     3.39779
      S    2    0.48153      4.99920     2.46546    0.05381     7.51847
      N    3   -0.50930      0.99983     2.98762    0.02185     4.00930
      H    4    0.12454      0.00000     0.37277    0.00269     0.37546
      H    5    0.11669      0.00000     0.38044    0.00287     0.38331
      H    6    0.18433      0.00000     0.31252    0.00315     0.31567
 =======================================================================
   * Total *    0.00000      6.99880     8.90481    0.09639    16.00000

 Normal termination of Gaussian 16 at Tue Jan  3 09:06:58 2023.
