 Gaussian 16, Revision C.01,

 ----------------------------------------------------------------------
 #p ub3lyp/gen stable=opt scf=(maxcycle=900,verytightlineq,xqc) integra
 l=grid=ultrafine symmetry=None density=current iop(99/18=-1) output=wf
 n
 ----------------------------------------------------------------------

 0005_q000_m01_k00_opt_uwb97xd_def2svpd/0005_q000_m01_k00_force_ub3lyp_
 def2qzvp stable-force
 ----------------------------------------------------------------------
 Symbolic Z-matrix:
 Charge =  0 Multiplicity = 1

 SCF Done:  E(UB3LYP) =  -512.779109456     A.U. after   13 cycles
 Normal termination of Gaussian 16 at Tue Jan  3 09:14:47 2023.
 Gaussian 16:  ES64L-G16RevC.01  3-Jul-2019

 ----------------------------------------------------------------------
 #p ub3lyp/chkbasis force guess=read geom=check scf=(maxcycle=900,veryt
 ightlineq,xqc) integral=grid=ultrafine symmetry=None density=current p
 op=(cm5,hlygat,mbs,npa) output=wfx
 ----------------------------------------------------------------------

 0005_q000_m01_k00_opt_uwb97xd_def2svpd/0005_q000_m01_k00_force_ub3lyp_
 def2qzvp stable-force
 ----------------------------------------------------------------------
 Structure from the checkpoint file:  "0005_q000_m01_k00_force_ub3lyp_def2qzvp.chk"
 Charge =  0 Multiplicity = 1

                          Input orientation:
 ---------------------------------------------------------------------
 Center     Atomic      Atomic             Coordinates (Angstroms)
 Number     Number       Type             X           Y           Z
 ---------------------------------------------------------------------
      1          6           0        0.977025   -0.019796   -0.100827
      2         16           0        2.588002   -0.034566   -0.126439
      3          8           0        3.171240   -0.714312   -1.316494
      4          1           0        0.518072    0.471588    0.758898
      5          1           0        0.370802   -0.470204   -0.889047
 ---------------------------------------------------------------------

 SCF Done:  E(UB3LYP) =  -512.779109456     A.U. after    1 cycles

 Alpha  occ. eigenvalues --  -88.96623 -19.13148 -10.22945  -8.03613  -5.99783
 Alpha  occ. eigenvalues --   -5.99758  -5.99364  -1.04390  -0.80294  -0.60771
 Alpha  occ. eigenvalues --   -0.49273  -0.46568  -0.42236  -0.39456  -0.29206
 Alpha  occ. eigenvalues --   -0.28015
 Alpha virt. eigenvalues --   -0.09370   0.00614   0.02235   0.05445   0.07302
 Alpha virt. eigenvalues --    0.11171   0.11425   0.14714   0.18329   0.18801
 Alpha virt. eigenvalues --    0.20086   0.23728   0.25615   0.26337   0.30025

  Beta  occ. eigenvalues --  -88.96623 -19.13148 -10.22945  -8.03613  -5.99783
  Beta  occ. eigenvalues --   -5.99758  -5.99364  -1.04390  -0.80294  -0.60771
  Beta  occ. eigenvalues --   -0.49273  -0.46568  -0.42236  -0.39456  -0.29206
  Beta  occ. eigenvalues --   -0.28015
  Beta virt. eigenvalues --   -0.09370   0.00614   0.02235   0.05445   0.07302
  Beta virt. eigenvalues --    0.11171   0.11425   0.14714   0.18329   0.18801
  Beta virt. eigenvalues --    0.20086   0.23728   0.25615   0.26337   0.30025

 Mulliken charges and spin densities:
               1          2
     1  C   -0.169182   0.000000
     2  S    0.434809  -0.000000
     3  O   -0.464293   0.000000
     4  H    0.072670  -0.000000
     5  H    0.125997   0.000000
 Sum of Mulliken charges =   0.00000  -0.00000

 Dipole moment (field-independent basis, Debye):
    X=             -2.3118    Y=              1.0781    Z=              1.8872  Tot=              3.1731
 Quadrupole moment (field-independent basis, Debye-Ang):
   XX=            -33.6977   YY=            -25.5775   ZZ=            -27.1646
   XY=              3.6934   XZ=              6.6187   YZ=             -1.2046

 ESP charges:
               1
     1  C   -0.314732
     2  S    0.306854
     3  O   -0.350603
     4  H    0.153305
     5  H    0.205177
 Sum of ESP charges =  -0.00000

 Summary of Natural Population Analysis:

                                       Natural Population
                Natural  -----------------------------------------------
    Atom  No    Charge         Core      Valence    Rydberg      Total
 -----------------------------------------------------------------------
      C    1   -0.37426      0.99979     2.35869    0.01578     3.37426
      S    2    0.57514      4.99927     2.35300    0.07259     7.42486
      O    3   -0.43862      0.99994     3.41637    0.02232     4.43862
      H    4    0.11796      0.00000     0.38099    0.00105     0.38204
      H    5    0.11978      0.00000     0.37787    0.00235     0.38022
 =======================================================================
   * Total *   -0.00000      6.99900     8.88691    0.11409    16.00000

 Normal termination of Gaussian 16 at Tue Jan  3 09:15:57 2023.
