 Gaussian 16, Revision C.01,

 ----------------------------------------------------------------------
 #p uwb97xd/gen stable=opt scf=(maxcycle=900,verytightlineq,xqc) integr
 al=grid=ultrafine symmetry=None density=current iop(99/18=-1) output=w
 fn
 ----------------------------------------------------------------------

 0005_q000_m01_k00_opt_uwb97xd_def2svpd/0005_q000_m01_k00_force_uwb97xd
 _def2svpd stable-force
 ----------------------------------------------------------------------
 Symbolic Z-matrix:
 Charge =  0 Multiplicity = 1

 SCF Done:  E(UwB97XD) =  -512.413343816     A.U. after   13 cycles
 Normal termination of Gaussian 16 at Tue Jan  3 09:08:29 2023.
 Gaussian 16:  ES64L-G16RevC.01  3-Jul-2019

 ----------------------------------------------------------------------
 #p uwb97xd/chkbasis force guess=read geom=check scf=(maxcycle=900,very
 tightlineq,xqc) integral=grid=ultrafine symmetry=None density=current
 pop=(cm5,hlygat,mbs,npa) output=wfx
 ----------------------------------------------------------------------

 0005_q000_m01_k00_opt_uwb97xd_def2svpd/0005_q000_m01_k00_force_uwb97xd
 _def2svpd stable-force
 ----------------------------------------------------------------------
 Structure from the checkpoint file:  "0005_q000_m01_k00_force_uwb97xd_def2svpd.chk"
 Charge =  0 Multiplicity = 1

                          Input orientation:
 ---------------------------------------------------------------------
 Center     Atomic      Atomic             Coordinates (Angstroms)
 Number     Number       Type             X           Y           Z
 ---------------------------------------------------------------------
      1          6           0        0.977025   -0.019796   -0.100827
      2         16           0        2.588002   -0.034566   -0.126439
      3          8           0        3.171240   -0.714312   -1.316494
      4          1           0        0.518072    0.471588    0.758898
      5          1           0        0.370802   -0.470204   -0.889047
 ---------------------------------------------------------------------

 SCF Done:  E(UwB97XD) =  -512.413343816     A.U. after    1 cycles

 Alpha  occ. eigenvalues --  -89.14678 -19.26430 -10.35833  -8.18289  -6.13646
 Alpha  occ. eigenvalues --   -6.13437  -6.13069  -1.14348  -0.90203  -0.69782
 Alpha  occ. eigenvalues --   -0.58346  -0.55513  -0.51400  -0.47986  -0.37202
 Alpha  occ. eigenvalues --   -0.35739
 Alpha virt. eigenvalues --   -0.02389   0.07390   0.07660   0.09109   0.10872
 Alpha virt. eigenvalues --    0.12048   0.14226   0.17744   0.19761   0.22266
 Alpha virt. eigenvalues --    0.22368   0.23293   0.25796   0.27085   0.28937

  Beta  occ. eigenvalues --  -89.14678 -19.26430 -10.35833  -8.18289  -6.13646
  Beta  occ. eigenvalues --   -6.13437  -6.13069  -1.14348  -0.90203  -0.69782
  Beta  occ. eigenvalues --   -0.58346  -0.55513  -0.51400  -0.47986  -0.37202
  Beta  occ. eigenvalues --   -0.35739
  Beta virt. eigenvalues --   -0.02389   0.07390   0.07660   0.09109   0.10872
  Beta virt. eigenvalues --    0.12048   0.14226   0.17744   0.19761   0.22266
  Beta virt. eigenvalues --    0.22368   0.23293   0.25796   0.27085   0.28937

 Mulliken charges and spin densities:
               1          2
     1  C    0.217790   0.000000
     2  S    0.426377   0.000000
     3  O   -0.631950   0.000000
     4  H   -0.001745   0.000000
     5  H   -0.010471   0.000000
 Sum of Mulliken charges =  -0.00000   0.00000

 Dipole moment (field-independent basis, Debye):
    X=             -2.5362    Y=              1.1142    Z=              1.9504  Tot=              3.3879
 Quadrupole moment (field-independent basis, Debye-Ang):
   XX=            -34.5154   YY=            -25.7971   ZZ=            -27.3668
   XY=              3.8169   XZ=              6.8497   YZ=             -1.1851

 ESP charges:
               1
     1  C   -0.338891
     2  S    0.305830
     3  O   -0.361467
     4  H    0.170378
     5  H    0.224150
 Sum of ESP charges =  -0.00000

 Summary of Natural Population Analysis:

                                       Natural Population
                Natural  -----------------------------------------------
    Atom  No    Charge         Core      Valence    Rydberg      Total
 -----------------------------------------------------------------------
      C    1   -0.36778      0.99978     2.35590    0.01211     3.36778
      S    2    0.56677      4.99923     2.36759    0.06641     7.43323
      O    3   -0.44938      0.99992     3.43054    0.01892     4.44938
      H    4    0.12519      0.00000     0.37167    0.00314     0.37481
      H    5    0.12520      0.00000     0.37067    0.00413     0.37480
 =======================================================================
   * Total *    0.00000      6.99893     8.89637    0.10470    16.00000

 Optimization completed.
    -- Stationary point found.
 Normal termination of Gaussian 16 at Tue Jan  3 09:08:37 2023.
