 Gaussian 16, Revision C.01,

 ----------------------------------------------------------------------
 #p ub3lyp/gen stable=opt scf=(maxcycle=900,verytightlineq,xqc) integra
 l=grid=ultrafine symmetry=None density=current iop(99/18=-1) output=wf
 n
 ----------------------------------------------------------------------

 0005_q000_m01_k00_opt_uwb97xd_def2svpd/0005_q000_m01_k00_force_ub3lyp_
 def2svp stable-force
 ----------------------------------------------------------------------
 Symbolic Z-matrix:
 Charge =  0 Multiplicity = 1

 SCF Done:  E(UB3LYP) =  -512.453151599     A.U. after   14 cycles
 Normal termination of Gaussian 16 at Tue Jan  3 09:07:20 2023.
 Gaussian 16:  ES64L-G16RevC.01  3-Jul-2019

 ----------------------------------------------------------------------
 #p ub3lyp/chkbasis force guess=read geom=check scf=(maxcycle=900,veryt
 ightlineq,xqc) integral=grid=ultrafine symmetry=None density=current p
 op=(cm5,hlygat,mbs,npa) output=wfx
 ----------------------------------------------------------------------

 0005_q000_m01_k00_opt_uwb97xd_def2svpd/0005_q000_m01_k00_force_ub3lyp_
 def2svp stable-force
 ----------------------------------------------------------------------
 Structure from the checkpoint file:  "0005_q000_m01_k00_force_ub3lyp_def2svp.chk"
 Charge =  0 Multiplicity = 1

                          Input orientation:
 ---------------------------------------------------------------------
 Center     Atomic      Atomic             Coordinates (Angstroms)
 Number     Number       Type             X           Y           Z
 ---------------------------------------------------------------------
      1          6           0        0.977025   -0.019796   -0.100827
      2         16           0        2.588002   -0.034566   -0.126439
      3          8           0        3.171240   -0.714312   -1.316494
      4          1           0        0.518072    0.471588    0.758898
      5          1           0        0.370802   -0.470204   -0.889047
 ---------------------------------------------------------------------

 SCF Done:  E(UB3LYP) =  -512.453151599     A.U. after    1 cycles

 Alpha  occ. eigenvalues --  -88.95870 -19.12242 -10.23078  -8.04542  -6.01307
 Alpha  occ. eigenvalues --   -6.01122  -6.00749  -1.03068  -0.79391  -0.59485
 Alpha  occ. eigenvalues --   -0.48569  -0.45628  -0.41750  -0.38407  -0.27631
 Alpha  occ. eigenvalues --   -0.26702
 Alpha virt. eigenvalues --   -0.08233   0.04158   0.07159   0.12704   0.15332
 Alpha virt. eigenvalues --    0.31123   0.39353   0.47519   0.48074   0.48445
 Alpha virt. eigenvalues --    0.58459   0.61754   0.63258   0.63759   0.65191

  Beta  occ. eigenvalues --  -88.95870 -19.12242 -10.23078  -8.04542  -6.01307
  Beta  occ. eigenvalues --   -6.01122  -6.00749  -1.03068  -0.79391  -0.59485
  Beta  occ. eigenvalues --   -0.48569  -0.45628  -0.41750  -0.38407  -0.27631
  Beta  occ. eigenvalues --   -0.26702
  Beta virt. eigenvalues --   -0.08233   0.04158   0.07159   0.12704   0.15332
  Beta virt. eigenvalues --    0.31123   0.39353   0.47519   0.48074   0.48445
  Beta virt. eigenvalues --    0.58459   0.61754   0.63258   0.63759   0.65191

 Mulliken charges and spin densities:
               1          2
     1  C   -0.189668   0.000000
     2  S    0.509849  -0.000000
     3  O   -0.496374   0.000000
     4  H    0.079142  -0.000000
     5  H    0.097051  -0.000000
 Sum of Mulliken charges =  -0.00000   0.00000

 Dipole moment (field-independent basis, Debye):
    X=             -2.0441    Y=              1.1060    Z=              1.9361  Tot=              3.0249
 Quadrupole moment (field-independent basis, Debye-Ang):
   XX=            -32.7197   YY=            -24.9922   ZZ=            -26.7289
   XY=              3.7385   XZ=              6.6801   YZ=             -1.3278

 ESP charges:
               1
     1  C   -0.269392
     2  S    0.324851
     3  O   -0.353750
     4  H    0.128500
     5  H    0.169790
 Sum of ESP charges =  -0.00000

 Summary of Natural Population Analysis:

                                       Natural Population
                Natural  -----------------------------------------------
    Atom  No    Charge         Core      Valence    Rydberg      Total
 -----------------------------------------------------------------------
      C    1   -0.35992      0.99968     2.35084    0.00940     3.35992
      S    2    0.54082      4.99928     2.39632    0.06358     7.45918
      O    3   -0.41530      0.99992     3.41008    0.00529     4.41530
      H    4    0.11647      0.00000     0.38196    0.00157     0.38353
      H    5    0.11793      0.00000     0.38015    0.00192     0.38207
 =======================================================================
   * Total *   -0.00000      6.99888     8.91935    0.08177    16.00000

 Normal termination of Gaussian 16 at Tue Jan  3 09:07:25 2023.
