 Gaussian 16, Revision C.01,

 ----------------------------------------------------------------------
 #p uhf/gen stable=opt scf=(maxcycle=900,verytightlineq,xqc) integral=g
 rid=ultrafine symmetry=None density=current iop(99/18=-1) output=wfn
 ----------------------------------------------------------------------

 0005_q000_m01_k00_opt_uwb97xd_def2svpd/0005_q000_m01_k00_force_uhf_def
 2svp stable-force
 ----------------------------------------------------------------------
 Symbolic Z-matrix:
 Charge =  0 Multiplicity = 1

 SCF Done:  E(UHF) =  -511.109837653     A.U. after   14 cycles
 SCF Done:  E(UHF) =  -511.117980013     a.u. after    8 cycles
 Normal termination of Gaussian 16 at Tue Jan  3 09:07:29 2023.
 Gaussian 16:  ES64L-G16RevC.01  3-Jul-2019

 ----------------------------------------------------------------------
 #p uhf/chkbasis force guess=read geom=check scf=(maxcycle=900,verytigh
 tlineq,xqc) integral=grid=ultrafine symmetry=None density=current pop=
 (cm5,hlygat,mbs,npa) output=wfx
 ----------------------------------------------------------------------

 0005_q000_m01_k00_opt_uwb97xd_def2svpd/0005_q000_m01_k00_force_uhf_def
 2svp stable-force
 ----------------------------------------------------------------------
 Structure from the checkpoint file:  "0005_q000_m01_k00_force_uhf_def2svp.chk"
 Charge =  0 Multiplicity = 1

                          Input orientation:
 ---------------------------------------------------------------------
 Center     Atomic      Atomic             Coordinates (Angstroms)
 Number     Number       Type             X           Y           Z
 ---------------------------------------------------------------------
      1          6           0        0.977025   -0.019796   -0.100827
      2         16           0        2.588002   -0.034566   -0.126439
      3          8           0        3.171240   -0.714312   -1.316494
      4          1           0        0.518072    0.471588    0.758898
      5          1           0        0.370802   -0.470204   -0.889047
 ---------------------------------------------------------------------

 SCF Done:  E(UHF) =  -511.117980014     A.U. after    1 cycles

 Alpha  occ. eigenvalues --  -92.03746 -20.55852 -11.27534  -9.06633  -6.75767
 Alpha  occ. eigenvalues --   -6.75342  -6.75053  -1.37966  -1.05460  -0.80106
 Alpha  occ. eigenvalues --   -0.65849  -0.63599  -0.62035  -0.55430  -0.44316
 Alpha  occ. eigenvalues --   -0.40668
 Alpha virt. eigenvalues --    0.09004   0.19215   0.19875   0.26251   0.32675
 Alpha virt. eigenvalues --    0.48028   0.57691   0.66715   0.68563   0.73186
 Alpha virt. eigenvalues --    0.82132   0.85241   0.87153   0.87522   0.89109

  Beta  occ. eigenvalues --  -92.03372 -20.53844 -11.29429  -9.06228  -6.75128
  Beta  occ. eigenvalues --   -6.74833  -6.74226  -1.33997  -1.06748  -0.80277
  Beta  occ. eigenvalues --   -0.66488  -0.63102  -0.54014  -0.53921  -0.42812
  Beta  occ. eigenvalues --   -0.38776
  Beta virt. eigenvalues --    0.07752   0.18458   0.20086   0.26677   0.32836
  Beta virt. eigenvalues --    0.48268   0.57372   0.64930   0.65257   0.68869
  Beta virt. eigenvalues --    0.83055   0.83399   0.86653   0.89223   0.89454

 Mulliken charges and spin densities:
               1          2
     1  C   -0.205215  -0.882526
     2  S    0.561423   0.395273
     3  O   -0.600351   0.365169
     4  H    0.112590   0.059919
     5  H    0.131555   0.062164
 Sum of Mulliken charges =  -0.00000  -0.00000

 Dipole moment (field-independent basis, Debye):
    X=             -2.6730    Y=              1.2407    Z=              2.1719  Tot=              3.6607
 Quadrupole moment (field-independent basis, Debye-Ang):
   XX=            -35.7041   YY=            -25.4652   ZZ=            -27.4862
   XY=              4.1813   XZ=              7.4967   YZ=             -1.5514

 ESP charges:
               1
     1  C   -0.184822
     2  S    0.292674
     3  O   -0.392697
     4  H    0.121520
     5  H    0.163326
 Sum of ESP charges =  -0.00000

 Summary of Natural Population Analysis:

                                       Natural Population
                Natural  -----------------------------------------------
    Atom  No    Charge         Core      Valence    Rydberg      Total
 -----------------------------------------------------------------------
      C    1   -0.70027      0.99971     2.68909    0.01147     3.70027
      S    2    0.70712      4.99929     2.22497    0.06863     7.29288
      O    3   -0.26092      0.99993     3.25450    0.00650     4.26092
      H    4    0.12539      0.00000     0.37319    0.00142     0.37461
      H    5    0.12869      0.00000     0.36954    0.00177     0.37131
 =======================================================================
   * Total *    0.00000      6.99893     8.91129    0.08978    16.00000

 Normal termination of Gaussian 16 at Tue Jan  3 09:07:35 2023.
