 Gaussian 16, Revision C.01,

 ----------------------------------------------------------------------
 #p uhf/gen stable=opt scf=(maxcycle=900,verytightlineq,xqc) integral=g
 rid=ultrafine symmetry=None density=current iop(99/18=-1) output=wfn
 ----------------------------------------------------------------------

 0005_q000_m01_k00_opt_uwb97xd_def2svpd/0005_q000_m01_k00_force_uhf_def
 2qzvp stable-force
 ----------------------------------------------------------------------
 Symbolic Z-matrix:
 Charge =  0 Multiplicity = 1

 SCF Done:  E(UHF) =  -511.435898364     A.U. after   15 cycles
 SCF Done:  E(UHF) =  -511.441543919     a.u. after    6 cycles
 Normal termination of Gaussian 16 at Tue Jan  3 09:26:01 2023.
 Gaussian 16:  ES64L-G16RevC.01  3-Jul-2019

 ----------------------------------------------------------------------
 #p uhf/chkbasis force guess=read geom=check scf=(maxcycle=900,verytigh
 tlineq,xqc) integral=grid=ultrafine symmetry=None density=current pop=
 (cm5,hlygat,mbs,npa) output=wfx
 ----------------------------------------------------------------------

 0005_q000_m01_k00_opt_uwb97xd_def2svpd/0005_q000_m01_k00_force_uhf_def
 2qzvp stable-force
 ----------------------------------------------------------------------
 Structure from the checkpoint file:  "0005_q000_m01_k00_force_uhf_def2qzvp.chk"
 Charge =  0 Multiplicity = 1

                          Input orientation:
 ---------------------------------------------------------------------
 Center     Atomic      Atomic             Coordinates (Angstroms)
 Number     Number       Type             X           Y           Z
 ---------------------------------------------------------------------
      1          6           0        0.977025   -0.019796   -0.100827
      2         16           0        2.588002   -0.034566   -0.126439
      3          8           0        3.171240   -0.714312   -1.316494
      4          1           0        0.518072    0.471588    0.758898
      5          1           0        0.370802   -0.470204   -0.889047
 ---------------------------------------------------------------------

 SCF Done:  E(UHF) =  -511.441543919     A.U. after    1 cycles

 Alpha  occ. eigenvalues --  -92.07161 -20.56281 -11.27954  -9.06271  -6.75071
 Alpha  occ. eigenvalues --   -6.74351  -6.74145  -1.38578  -1.06005  -0.81083
 Alpha  occ. eigenvalues --   -0.65916  -0.63622  -0.61232  -0.55497  -0.44509
 Alpha  occ. eigenvalues --   -0.40693
 Alpha virt. eigenvalues --    0.06478   0.10926   0.13716   0.15399   0.16063
 Alpha virt. eigenvalues --    0.21700   0.21936   0.26351   0.29701   0.31438
 Alpha virt. eigenvalues --    0.33574   0.37122   0.38444   0.40516   0.43751

  Beta  occ. eigenvalues --  -92.06721 -20.54712 -11.29547  -9.05822  -6.74052
  Beta  occ. eigenvalues --   -6.73975  -6.73288  -1.35190  -1.07481  -0.80893
  Beta  occ. eigenvalues --   -0.66482  -0.63290  -0.54294  -0.54023  -0.43176
  Beta  occ. eigenvalues --   -0.39886
  Beta virt. eigenvalues --    0.06155   0.10595   0.13651   0.15809   0.16197
  Beta virt. eigenvalues --    0.19934   0.22405   0.26454   0.28926   0.31154
  Beta virt. eigenvalues --    0.33752   0.36768   0.38603   0.41960   0.43322

 Mulliken charges and spin densities:
               1          2
     1  C   -0.255300  -0.817163
     2  S    0.474454   0.399446
     3  O   -0.522970   0.291269
     4  H    0.126758   0.062979
     5  H    0.177058   0.063469
 Sum of Mulliken charges =   0.00000  -0.00000

 Dipole moment (field-independent basis, Debye):
    X=             -2.8340    Y=              1.2022    Z=              2.1045  Tot=              3.7290
 Quadrupole moment (field-independent basis, Debye-Ang):
   XX=            -35.8438   YY=            -25.6707   ZZ=            -27.5481
   XY=              4.0859   XZ=              7.3402   YZ=             -1.4346

 ESP charges:
               1
     1  C   -0.235514
     2  S    0.280995
     3  O   -0.385875
     4  H    0.144987
     5  H    0.195407
 Sum of ESP charges =  -0.00000

 Summary of Natural Population Analysis:

                                       Natural Population
                Natural  -----------------------------------------------
    Atom  No    Charge         Core      Valence    Rydberg      Total
 -----------------------------------------------------------------------
      C    1   -0.68890      0.99979     2.66972    0.01938     3.68890
      S    2    0.77939      4.99920     2.14808    0.07333     7.22061
      O    3   -0.34008      0.99994     3.31355    0.02659     4.34008
      H    4    0.12195      0.00000     0.37632    0.00173     0.37805
      H    5    0.12763      0.00000     0.37029    0.00208     0.37237
 =======================================================================
   * Total *    0.00000      6.99894     8.87795    0.12311    16.00000

 Normal termination of Gaussian 16 at Tue Jan  3 09:27:04 2023.
