 Gaussian 16, Revision C.01,

 ----------------------------------------------------------------------
 #p uwb97xd/gen stable=opt scf=(maxcycle=900,verytightlineq,xqc) integr
 al=grid=ultrafine symmetry=None density=current iop(99/18=-1) output=w
 fn
 ----------------------------------------------------------------------

 0005_q000_m01_k00_opt_uwb97xd_def2svpd/0005_q000_m01_k00_force_uwb97xd
 _def2svp stable-force
 ----------------------------------------------------------------------
 Symbolic Z-matrix:
 Charge =  0 Multiplicity = 1

 SCF Done:  E(UwB97XD) =  -512.391565795     A.U. after   16 cycles
 Normal termination of Gaussian 16 at Tue Jan  3 09:08:02 2023.
 Gaussian 16:  ES64L-G16RevC.01  3-Jul-2019

 ----------------------------------------------------------------------
 #p uwb97xd/chkbasis force guess=read geom=check scf=(maxcycle=900,very
 tightlineq,xqc) integral=grid=ultrafine symmetry=None density=current
 pop=(cm5,hlygat,mbs,npa) output=wfx
 ----------------------------------------------------------------------

 0005_q000_m01_k00_opt_uwb97xd_def2svpd/0005_q000_m01_k00_force_uwb97xd
 _def2svp stable-force
 ----------------------------------------------------------------------
 Structure from the checkpoint file:  "0005_q000_m01_k00_force_uwb97xd_def2svp.chk"
 Charge =  0 Multiplicity = 1

                          Input orientation:
 ---------------------------------------------------------------------
 Center     Atomic      Atomic             Coordinates (Angstroms)
 Number     Number       Type             X           Y           Z
 ---------------------------------------------------------------------
      1          6           0        0.977025   -0.019796   -0.100827
      2         16           0        2.588002   -0.034566   -0.126439
      3          8           0        3.171240   -0.714312   -1.316494
      4          1           0        0.518072    0.471588    0.758898
      5          1           0        0.370802   -0.470204   -0.889047
 ---------------------------------------------------------------------

 SCF Done:  E(UwB97XD) =  -512.391565795     A.U. after    1 cycles

 Alpha  occ. eigenvalues --  -89.12772 -19.24508 -10.34582  -8.17065  -6.12366
 Alpha  occ. eigenvalues --   -6.12180  -6.11801  -1.13247  -0.89390  -0.68846
 Alpha  occ. eigenvalues --   -0.57479  -0.54359  -0.50598  -0.46835  -0.35890
 Alpha  occ. eigenvalues --   -0.34471
 Alpha virt. eigenvalues --   -0.01279   0.11712   0.15369   0.21058   0.23093
 Alpha virt. eigenvalues --    0.38892   0.48059   0.55667   0.56861   0.56910
 Alpha virt. eigenvalues --    0.66690   0.70591   0.71464   0.72613   0.73746

  Beta  occ. eigenvalues --  -89.12772 -19.24508 -10.34582  -8.17065  -6.12366
  Beta  occ. eigenvalues --   -6.12180  -6.11801  -1.13247  -0.89390  -0.68846
  Beta  occ. eigenvalues --   -0.57479  -0.54359  -0.50598  -0.46835  -0.35890
  Beta  occ. eigenvalues --   -0.34471
  Beta virt. eigenvalues --   -0.01279   0.11712   0.15369   0.21058   0.23093
  Beta virt. eigenvalues --    0.38892   0.48059   0.55667   0.56861   0.56910
  Beta virt. eigenvalues --    0.66690   0.70591   0.71464   0.72613   0.73746

 Mulliken charges and spin densities:
               1          2
     1  C   -0.241556   0.000000
     2  S    0.519593   0.000000
     3  O   -0.514584   0.000000
     4  H    0.109023   0.000000
     5  H    0.127525   0.000000
 Sum of Mulliken charges =   0.00000   0.00000

 Dipole moment (field-independent basis, Debye):
    X=             -2.2034    Y=              1.1479    Z=              2.0096  Tot=              3.1955
 Quadrupole moment (field-independent basis, Debye-Ang):
   XX=            -33.2353   YY=            -25.0277   ZZ=            -26.7904
   XY=              3.8786   XZ=              6.9359   YZ=             -1.3443

 ESP charges:
               1
     1  C   -0.293275
     2  S    0.332146
     3  O   -0.366713
     4  H    0.142471
     5  H    0.185371
 Sum of ESP charges =  -0.00000

 Summary of Natural Population Analysis:

                                       Natural Population
                Natural  -----------------------------------------------
    Atom  No    Charge         Core      Valence    Rydberg      Total
 -----------------------------------------------------------------------
      C    1   -0.36307      0.99968     2.35396    0.00943     3.36307
      S    2    0.54636      4.99930     2.38939    0.06496     7.45364
      O    3   -0.42385      0.99992     3.41851    0.00542     4.42385
      H    4    0.11927      0.00000     0.37947    0.00126     0.38073
      H    5    0.12130      0.00000     0.37711    0.00160     0.37870
 =======================================================================
   * Total *    0.00000      6.99890     8.91844    0.08266    16.00000

 Normal termination of Gaussian 16 at Tue Jan  3 09:08:08 2023.
