 Gaussian 16, Revision C.01,

 ----------------------------------------------------------------------
 #p uhf/gen stable=opt scf=(maxcycle=900,verytightlineq,xqc) integral=g
 rid=ultrafine symmetry=None density=current iop(99/18=-1) output=wfn
 ----------------------------------------------------------------------

 0005_q000_m01_k00_opt_uwb97xd_def2svpd/0005_q000_m01_k00_force_uhf_def
 2tzvpd stable-force
 ----------------------------------------------------------------------
 Symbolic Z-matrix:
 Charge =  0 Multiplicity = 1

 SCF Done:  E(UHF) =  -511.419054258     A.U. after   13 cycles
 SCF Done:  E(UHF) =  -511.424576050     a.u. after    6 cycles
 Normal termination of Gaussian 16 at Tue Jan  3 09:08:05 2023.
 Gaussian 16:  ES64L-G16RevC.01  3-Jul-2019

 ----------------------------------------------------------------------
 #p uhf/chkbasis force guess=read geom=check scf=(maxcycle=900,verytigh
 tlineq,xqc) integral=grid=ultrafine symmetry=None density=current pop=
 (cm5,hlygat,mbs,npa) output=wfx
 ----------------------------------------------------------------------

 0005_q000_m01_k00_opt_uwb97xd_def2svpd/0005_q000_m01_k00_force_uhf_def
 2tzvpd stable-force
 ----------------------------------------------------------------------
 Structure from the checkpoint file:  "0005_q000_m01_k00_force_uhf_def2tzvpd.chk"
 Charge =  0 Multiplicity = 1

                          Input orientation:
 ---------------------------------------------------------------------
 Center     Atomic      Atomic             Coordinates (Angstroms)
 Number     Number       Type             X           Y           Z
 ---------------------------------------------------------------------
      1          6           0        0.977025   -0.019796   -0.100827
      2         16           0        2.588002   -0.034566   -0.126439
      3          8           0        3.171240   -0.714312   -1.316494
      4          1           0        0.518072    0.471588    0.758898
      5          1           0        0.370802   -0.470204   -0.889047
 ---------------------------------------------------------------------

 SCF Done:  E(UHF) =  -511.424576051     A.U. after    1 cycles

 Alpha  occ. eigenvalues --  -92.07163 -20.56529 -11.28004  -9.06495  -6.75275
 Alpha  occ. eigenvalues --   -6.74591  -6.74381  -1.38693  -1.06098  -0.81141
 Alpha  occ. eigenvalues --   -0.65981  -0.63704  -0.61273  -0.55556  -0.44547
 Alpha  occ. eigenvalues --   -0.40703
 Alpha virt. eigenvalues --    0.06028   0.06105   0.06389   0.07685   0.07914
 Alpha virt. eigenvalues --    0.12357   0.13411   0.15071   0.17341   0.18316
 Alpha virt. eigenvalues --    0.19278   0.21280   0.23697   0.24107   0.26812

  Beta  occ. eigenvalues --  -92.06710 -20.54952 -11.29617  -9.06047  -6.74296
  Beta  occ. eigenvalues --   -6.74192  -6.73483  -1.35339  -1.07555  -0.80957
  Beta  occ. eigenvalues --   -0.66542  -0.63368  -0.54358  -0.54090  -0.43207
  Beta  occ. eigenvalues --   -0.39938
  Beta virt. eigenvalues --    0.05588   0.05991   0.06341   0.07650   0.07782
  Beta virt. eigenvalues --    0.12363   0.13536   0.15055   0.17679   0.18441
  Beta virt. eigenvalues --    0.19296   0.21506   0.23763   0.24178   0.24785

 Mulliken charges and spin densities:
               1          2
     1  C   -0.278457  -0.815323
     2  S    0.449833   0.468704
     3  O   -0.599043   0.269627
     4  H    0.230032   0.037520
     5  H    0.197635   0.039471
 Sum of Mulliken charges =   0.00000   0.00000

 Dipole moment (field-independent basis, Debye):
    X=             -2.8449    Y=              1.1886    Z=              2.0806  Tot=              3.7195
 Quadrupole moment (field-independent basis, Debye-Ang):
   XX=            -35.8895   YY=            -25.7581   ZZ=            -27.6026
   XY=              4.0520   XZ=              7.2816   YZ=             -1.4085

 ESP charges:
               1
     1  C   -0.243199
     2  S    0.278545
     3  O   -0.383016
     4  H    0.147623
     5  H    0.200047
 Sum of ESP charges =  -0.00000

 Summary of Natural Population Analysis:

                                       Natural Population
                Natural  -----------------------------------------------
    Atom  No    Charge         Core      Valence    Rydberg      Total
 -----------------------------------------------------------------------
      C    1   -0.68453      0.99979     2.66625    0.01849     3.68453
      S    2    0.77642      4.99923     2.14800    0.07635     7.22358
      O    3   -0.33945      0.99994     3.31377    0.02574     4.33945
      H    4    0.12106      0.00000     0.37700    0.00195     0.37894
      H    5    0.12650      0.00000     0.37189    0.00160     0.37350
 =======================================================================
   * Total *    0.00000      6.99896     8.87691    0.12413    16.00000

 Normal termination of Gaussian 16 at Tue Jan  3 09:08:17 2023.
