 Gaussian 16, Revision C.01,

 ----------------------------------------------------------------------
 #p uwb97xd/gen stable=opt scf=(maxcycle=900,verytightlineq,xqc) integr
 al=grid=ultrafine symmetry=None density=current iop(99/18=-1) output=w
 fn
 ----------------------------------------------------------------------

 0005_q000_m01_k00_opt_uwb97xd_def2svpd/0005_q000_m01_k00_force_uwb97xd
 _def2qzvp stable-force
 ----------------------------------------------------------------------
 Symbolic Z-matrix:
 Charge =  0 Multiplicity = 1

 SCF Done:  E(UwB97XD) =  -512.713472704     A.U. after   15 cycles
 Normal termination of Gaussian 16 at Tue Jan  3 09:19:30 2023.
 Gaussian 16:  ES64L-G16RevC.01  3-Jul-2019

 ----------------------------------------------------------------------
 #p uwb97xd/chkbasis force guess=read geom=check scf=(maxcycle=900,very
 tightlineq,xqc) integral=grid=ultrafine symmetry=None density=current
 pop=(cm5,hlygat,mbs,npa) output=wfx
 ----------------------------------------------------------------------

 0005_q000_m01_k00_opt_uwb97xd_def2svpd/0005_q000_m01_k00_force_uwb97xd
 _def2qzvp stable-force
 ----------------------------------------------------------------------
 Structure from the checkpoint file:  "0005_q000_m01_k00_force_uwb97xd_def2qzvp.chk"
 Charge =  0 Multiplicity = 1

                          Input orientation:
 ---------------------------------------------------------------------
 Center     Atomic      Atomic             Coordinates (Angstroms)
 Number     Number       Type             X           Y           Z
 ---------------------------------------------------------------------
      1          6           0        0.977025   -0.019796   -0.100827
      2         16           0        2.588002   -0.034566   -0.126439
      3          8           0        3.171240   -0.714312   -1.316494
      4          1           0        0.518072    0.471588    0.758898
      5          1           0        0.370802   -0.470204   -0.889047
 ---------------------------------------------------------------------

 SCF Done:  E(UwB97XD) =  -512.713472704     A.U. after    1 cycles

 Alpha  occ. eigenvalues --  -89.13395 -19.25121 -10.34175  -8.15797  -6.10490
 Alpha  occ. eigenvalues --   -6.10469  -6.10060  -1.14105  -0.89892  -0.69784
 Alpha  occ. eigenvalues --   -0.57795  -0.54890  -0.50717  -0.47497  -0.37022
 Alpha  occ. eigenvalues --   -0.35420
 Alpha virt. eigenvalues --   -0.01984   0.08425   0.09698   0.12853   0.14755
 Alpha virt. eigenvalues --    0.18972   0.19047   0.22626   0.26101   0.26587
 Alpha virt. eigenvalues --    0.27973   0.31550   0.33794   0.34647   0.37747

  Beta  occ. eigenvalues --  -89.13395 -19.25121 -10.34175  -8.15797  -6.10490
  Beta  occ. eigenvalues --   -6.10469  -6.10060  -1.14105  -0.89892  -0.69784
  Beta  occ. eigenvalues --   -0.57795  -0.54890  -0.50717  -0.47497  -0.37022
  Beta  occ. eigenvalues --   -0.35420
  Beta virt. eigenvalues --   -0.01984   0.08425   0.09698   0.12853   0.14755
  Beta virt. eigenvalues --    0.18972   0.19047   0.22626   0.26101   0.26587
  Beta virt. eigenvalues --    0.27973   0.31550   0.33794   0.34647   0.37747

 Mulliken charges and spin densities:
               1          2
     1  C   -0.170376   0.000000
     2  S    0.374132  -0.000000
     3  O   -0.448563   0.000000
     4  H    0.102500  -0.000000
     5  H    0.142307   0.000000
 Sum of Mulliken charges =   0.00000   0.00000

 Dipole moment (field-independent basis, Debye):
    X=             -2.3895    Y=              1.0885    Z=              1.9054  Tot=              3.2442
 Quadrupole moment (field-independent basis, Debye-Ang):
   XX=            -33.6372   YY=            -25.3705   ZZ=            -26.9239
   XY=              3.7223   XZ=              6.6746   YZ=             -1.1747

 ESP charges:
               1
     1  C   -0.341035
     2  S    0.308661
     3  O   -0.352973
     4  H    0.166914
     5  H    0.218433
 Sum of ESP charges =  -0.00000

 Summary of Natural Population Analysis:

                                       Natural Population
                Natural  -----------------------------------------------
    Atom  No    Charge         Core      Valence    Rydberg      Total
 -----------------------------------------------------------------------
      C    1   -0.37636      0.99979     2.36057    0.01601     3.37636
      S    2    0.57918      4.99928     2.34920    0.07234     7.42082
      O    3   -0.44330      0.99994     3.42008    0.02329     4.44330
      H    4    0.11829      0.00000     0.37989    0.00182     0.38171
      H    5    0.12220      0.00000     0.37558    0.00222     0.37780
 =======================================================================
   * Total *    0.00000      6.99901     8.88532    0.11567    16.00000

 Normal termination of Gaussian 16 at Tue Jan  3 09:21:29 2023.
