 Gaussian 16, Revision C.01,

 ----------------------------------------------------------------------
 #p ub3lyp/gen stable=opt scf=(maxcycle=900,verytightlineq,xqc) integra
 l=grid=ultrafine symmetry=None density=current iop(99/18=-1) output=wf
 n
 ----------------------------------------------------------------------

 0005_q000_m01_k00_opt_uwb97xd_def2svpd/0005_q000_m01_k00_force_ub3lyp_
 def2tzvp stable-force
 ----------------------------------------------------------------------
 Symbolic Z-matrix:
 Charge =  0 Multiplicity = 1

 SCF Done:  E(UB3LYP) =  -512.756047919     A.U. after   14 cycles
 Normal termination of Gaussian 16 at Tue Jan  3 09:07:57 2023.
 Gaussian 16:  ES64L-G16RevC.01  3-Jul-2019

 ----------------------------------------------------------------------
 #p ub3lyp/chkbasis force guess=read geom=check scf=(maxcycle=900,veryt
 ightlineq,xqc) integral=grid=ultrafine symmetry=None density=current p
 op=(cm5,hlygat,mbs,npa) output=wfx
 ----------------------------------------------------------------------

 0005_q000_m01_k00_opt_uwb97xd_def2svpd/0005_q000_m01_k00_force_ub3lyp_
 def2tzvp stable-force
 ----------------------------------------------------------------------
 Structure from the checkpoint file:  "0005_q000_m01_k00_force_ub3lyp_def2tzvp.chk"
 Charge =  0 Multiplicity = 1

                          Input orientation:
 ---------------------------------------------------------------------
 Center     Atomic      Atomic             Coordinates (Angstroms)
 Number     Number       Type             X           Y           Z
 ---------------------------------------------------------------------
      1          6           0        0.977025   -0.019796   -0.100827
      2         16           0        2.588002   -0.034566   -0.126439
      3          8           0        3.171240   -0.714312   -1.316494
      4          1           0        0.518072    0.471588    0.758898
      5          1           0        0.370802   -0.470204   -0.889047
 ---------------------------------------------------------------------

 SCF Done:  E(UB3LYP) =  -512.756047919     A.U. after    1 cycles

 Alpha  occ. eigenvalues --  -88.96829 -19.12754 -10.22508  -8.03357  -5.99508
 Alpha  occ. eigenvalues --   -5.99500  -5.99075  -1.04197  -0.80133  -0.60593
 Alpha  occ. eigenvalues --   -0.49118  -0.46366  -0.42048  -0.39240  -0.28932
 Alpha  occ. eigenvalues --   -0.27781
 Alpha virt. eigenvalues --   -0.09087   0.01213   0.05241   0.08346   0.10209
 Alpha virt. eigenvalues --    0.14123   0.19698   0.19949   0.26281   0.28153
 Alpha virt. eigenvalues --    0.29070   0.31444   0.35528   0.38587   0.39582

  Beta  occ. eigenvalues --  -88.96829 -19.12754 -10.22508  -8.03357  -5.99508
  Beta  occ. eigenvalues --   -5.99500  -5.99075  -1.04197  -0.80133  -0.60593
  Beta  occ. eigenvalues --   -0.49118  -0.46366  -0.42048  -0.39240  -0.28932
  Beta  occ. eigenvalues --   -0.27781
  Beta virt. eigenvalues --   -0.09087   0.01213   0.05241   0.08346   0.10209
  Beta virt. eigenvalues --    0.14123   0.19698   0.19949   0.26281   0.28153
  Beta virt. eigenvalues --    0.29070   0.31444   0.35528   0.38587   0.39582

 Mulliken charges and spin densities:
               1          2
     1  C   -0.292195  -0.000000
     2  S    0.453143   0.000000
     3  O   -0.469081   0.000000
     4  H    0.142979  -0.000000
     5  H    0.165154   0.000000
 Sum of Mulliken charges =   0.00000   0.00000

 Dipole moment (field-independent basis, Debye):
    X=             -2.2733    Y=              1.0889    Z=              1.9062  Tot=              3.1602
 Quadrupole moment (field-independent basis, Debye-Ang):
   XX=            -33.4890   YY=            -25.4414   ZZ=            -26.9987
   XY=              3.7007   XZ=              6.6290   YZ=             -1.1780

 ESP charges:
               1
     1  C   -0.327087
     2  S    0.314172
     3  O   -0.351323
     4  H    0.158799
     5  H    0.205440
 Sum of ESP charges =  -0.00000

 Summary of Natural Population Analysis:

                                       Natural Population
                Natural  -----------------------------------------------
    Atom  No    Charge         Core      Valence    Rydberg      Total
 -----------------------------------------------------------------------
      C    1   -0.37438      0.99978     2.36002    0.01458     3.37438
      S    2    0.56674      4.99928     2.36006    0.07392     7.43326
      O    3   -0.42692      0.99994     3.40965    0.01733     4.42692
      H    4    0.11591      0.00000     0.38342    0.00067     0.38409
      H    5    0.11865      0.00000     0.38032    0.00103     0.38135
 =======================================================================
   * Total *   -0.00000      6.99900     8.89347    0.10753    16.00000

 Normal termination of Gaussian 16 at Tue Jan  3 09:08:08 2023.
