 Gaussian 16, Revision C.01,

 ----------------------------------------------------------------------
 #p uhf/gen stable=opt scf=(maxcycle=900,verytightlineq,xqc) integral=g
 rid=ultrafine symmetry=None density=current iop(99/18=-1) output=wfn
 ----------------------------------------------------------------------

 0005_q000_m01_k00_opt_uwb97xd_def2svpd/0005_q000_m01_k00_force_uhf_def
 2tzvp stable-force
 ----------------------------------------------------------------------
 Symbolic Z-matrix:
 Charge =  0 Multiplicity = 1

 SCF Done:  E(UHF) =  -511.416900355     A.U. after   14 cycles
 SCF Done:  E(UHF) =  -511.422589376     a.u. after    6 cycles
 Normal termination of Gaussian 16 at Tue Jan  3 09:07:44 2023.
 Gaussian 16:  ES64L-G16RevC.01  3-Jul-2019

 ----------------------------------------------------------------------
 #p uhf/chkbasis force guess=read geom=check scf=(maxcycle=900,verytigh
 tlineq,xqc) integral=grid=ultrafine symmetry=None density=current pop=
 (cm5,hlygat,mbs,npa) output=wfx
 ----------------------------------------------------------------------

 0005_q000_m01_k00_opt_uwb97xd_def2svpd/0005_q000_m01_k00_force_uhf_def
 2tzvp stable-force
 ----------------------------------------------------------------------
 Structure from the checkpoint file:  "0005_q000_m01_k00_force_uhf_def2tzvp.chk"
 Charge =  0 Multiplicity = 1

                          Input orientation:
 ---------------------------------------------------------------------
 Center     Atomic      Atomic             Coordinates (Angstroms)
 Number     Number       Type             X           Y           Z
 ---------------------------------------------------------------------
      1          6           0        0.977025   -0.019796   -0.100827
      2         16           0        2.588002   -0.034566   -0.126439
      3          8           0        3.171240   -0.714312   -1.316494
      4          1           0        0.518072    0.471588    0.758898
      5          1           0        0.370802   -0.470204   -0.889047
 ---------------------------------------------------------------------

 SCF Done:  E(UHF) =  -511.422589377     A.U. after    1 cycles

 Alpha  occ. eigenvalues --  -92.06878 -20.56165 -11.27785  -9.06227  -6.75000
 Alpha  occ. eigenvalues --   -6.74321  -6.74110  -1.38471  -1.05922  -0.80960
 Alpha  occ. eigenvalues --   -0.65815  -0.63506  -0.61125  -0.55360  -0.44373
 Alpha  occ. eigenvalues --   -0.40548
 Alpha virt. eigenvalues --    0.07214   0.15841   0.16917   0.19870   0.21685
 Alpha virt. eigenvalues --    0.27519   0.32084   0.33957   0.43211   0.43584
 Alpha virt. eigenvalues --    0.44074   0.47954   0.53717   0.55972   0.58858

  Beta  occ. eigenvalues --  -92.06428 -20.54560 -11.29411  -9.05781  -6.74027
  Beta  occ. eigenvalues --   -6.73920  -6.73221  -1.35071  -1.07373  -0.80789
  Beta  occ. eigenvalues --   -0.66382  -0.63169  -0.54147  -0.53900  -0.43030
  Beta  occ. eigenvalues --   -0.39713
  Beta virt. eigenvalues --    0.06697   0.15506   0.16972   0.20040   0.21770
  Beta virt. eigenvalues --    0.27963   0.31237   0.32129   0.43043   0.43308
  Beta virt. eigenvalues --    0.43491   0.47793   0.55214   0.56683   0.57767

 Mulliken charges and spin densities:
               1          2
     1  C   -0.341035  -0.791691
     2  S    0.571224   0.403992
     3  O   -0.570748   0.289631
     4  H    0.160036   0.048053
     5  H    0.180523   0.050016
 Sum of Mulliken charges =  -0.00000  -0.00000

 Dipole moment (field-independent basis, Debye):
    X=             -2.8095    Y=              1.2191    Z=              2.1341  Tot=              3.7328
 Quadrupole moment (field-independent basis, Debye-Ang):
   XX=            -35.7499   YY=            -25.5788   ZZ=            -27.4603
   XY=              4.1189   XZ=              7.3964   YZ=             -1.4359

 ESP charges:
               1
     1  C   -0.240146
     2  S    0.288246
     3  O   -0.389046
     4  H    0.147316
     5  H    0.193629
 Sum of ESP charges =  -0.00000

 Summary of Natural Population Analysis:

                                       Natural Population
                Natural  -----------------------------------------------
    Atom  No    Charge         Core      Valence    Rydberg      Total
 -----------------------------------------------------------------------
      C    1   -0.69245      0.99980     2.67411    0.01854     3.69245
      S    2    0.77169      4.99924     2.15379    0.07528     7.22831
      O    3   -0.32772      0.99994     3.30651    0.02126     4.32772
      H    4    0.12164      0.00000     0.37781    0.00055     0.37836
      H    5    0.12683      0.00000     0.37229    0.00088     0.37317
 =======================================================================
   * Total *   -0.00000      6.99898     8.88451    0.11651    16.00000

 Normal termination of Gaussian 16 at Tue Jan  3 09:07:53 2023.
