 Gaussian 16, Revision C.01,

 ----------------------------------------------------------------------
 #p uhf/gen stable=opt scf=(maxcycle=900,verytightlineq,xqc) integral=g
 rid=ultrafine symmetry=None density=current iop(99/18=-1) output=wfn
 ----------------------------------------------------------------------

 0005_q000_m01_k00_opt_uwb97xd_def2svpd/0005_q000_m01_k00_force_uhf_def
 2svpd stable-force
 ----------------------------------------------------------------------
 Symbolic Z-matrix:
 Charge =  0 Multiplicity = 1

 SCF Done:  E(UHF) =  -511.132595382     A.U. after   14 cycles
 SCF Done:  E(UHF) =  -511.138701744     a.u. after    6 cycles
 Normal termination of Gaussian 16 at Tue Jan  3 09:07:34 2023.
 Gaussian 16:  ES64L-G16RevC.01  3-Jul-2019

 ----------------------------------------------------------------------
 #p uhf/chkbasis force guess=read geom=check scf=(maxcycle=900,verytigh
 tlineq,xqc) integral=grid=ultrafine symmetry=None density=current pop=
 (cm5,hlygat,mbs,npa) output=wfx
 ----------------------------------------------------------------------

 0005_q000_m01_k00_opt_uwb97xd_def2svpd/0005_q000_m01_k00_force_uhf_def
 2svpd stable-force
 ----------------------------------------------------------------------
 Structure from the checkpoint file:  "0005_q000_m01_k00_force_uhf_def2svpd.chk"
 Charge =  0 Multiplicity = 1

                          Input orientation:
 ---------------------------------------------------------------------
 Center     Atomic      Atomic             Coordinates (Angstroms)
 Number     Number       Type             X           Y           Z
 ---------------------------------------------------------------------
      1          6           0        0.977025   -0.019796   -0.100827
      2         16           0        2.588002   -0.034566   -0.126439
      3          8           0        3.171240   -0.714312   -1.316494
      4          1           0        0.518072    0.471588    0.758898
      5          1           0        0.370802   -0.470204   -0.889047
 ---------------------------------------------------------------------

 SCF Done:  E(UHF) =  -511.138701744     A.U. after    1 cycles

 Alpha  occ. eigenvalues --  -92.05765 -20.56942 -11.28777  -9.08001  -6.77231
 Alpha  occ. eigenvalues --   -6.76734  -6.76440  -1.38302  -1.06071  -0.80892
 Alpha  occ. eigenvalues --   -0.66515  -0.64320  -0.62014  -0.56043  -0.44861
 Alpha  occ. eigenvalues --   -0.41064
 Alpha virt. eigenvalues --    0.06807   0.08201   0.09389   0.09406   0.11230
 Alpha virt. eigenvalues --    0.14582   0.16788   0.20340   0.22407   0.23767
 Alpha virt. eigenvalues --    0.25210   0.27775   0.28433   0.29408   0.32539

  Beta  occ. eigenvalues --  -92.05361 -20.55227 -11.30564  -9.07562  -6.76488
  Beta  occ. eigenvalues --   -6.76220  -6.75563  -1.34873  -1.07352  -0.80862
  Beta  occ. eigenvalues --   -0.67107  -0.63874  -0.54758  -0.54526  -0.43405
  Beta  occ. eigenvalues --   -0.40094
  Beta virt. eigenvalues --    0.05403   0.08152   0.09343   0.09430   0.11497
  Beta virt. eigenvalues --    0.14482   0.17205   0.20276   0.22448   0.24455
  Beta virt. eigenvalues --    0.25130   0.27961   0.28261   0.29737   0.30508

 Mulliken charges and spin densities:
               1          2
     1  C    0.101900  -0.919254
     2  S    0.557271   0.503048
     3  O   -0.794541   0.254882
     4  H    0.069894   0.078902
     5  H    0.065476   0.082422
 Sum of Mulliken charges =   0.00000   0.00000

 Dipole moment (field-independent basis, Debye):
    X=             -2.9254    Y=              1.2168    Z=              2.1300  Tot=              3.8178
 Quadrupole moment (field-independent basis, Debye-Ang):
   XX=            -36.5154   YY=            -26.0822   ZZ=            -27.9259
   XY=              4.1307   XZ=              7.4247   YZ=             -1.4042

 ESP charges:
               1
     1  C   -0.240654
     2  S    0.278658
     3  O   -0.389494
     4  H    0.150718
     5  H    0.200772
 Sum of ESP charges =  -0.00000

 Summary of Natural Population Analysis:

                                       Natural Population
                Natural  -----------------------------------------------
    Atom  No    Charge         Core      Valence    Rydberg      Total
 -----------------------------------------------------------------------
      C    1   -0.68413      0.99980     2.67030    0.01403     3.68413
      S    2    0.75987      4.99922     2.17177    0.06914     7.24013
      O    3   -0.33393      0.99993     3.31274    0.02126     4.33393
      H    4    0.12828      0.00000     0.36740    0.00432     0.37172
      H    5    0.12989      0.00000     0.36475    0.00536     0.37011
 =======================================================================
   * Total *    0.00000      6.99894     8.88696    0.11410    16.00000

 Normal termination of Gaussian 16 at Tue Jan  3 09:07:39 2023.
