 Gaussian 16, Revision C.01,

 ----------------------------------------------------------------------
 #p ub3lyp/gen stable=opt scf=(maxcycle=900,verytightlineq,xqc) integra
 l=grid=ultrafine symmetry=None density=current iop(99/18=-1) output=wf
 n
 ----------------------------------------------------------------------

 0005_q000_m01_k00_opt_uwb97xd_def2svpd/0005_q000_m01_k00_force_ub3lyp_
 def2tzvpd stable-force
 ----------------------------------------------------------------------
 Symbolic Z-matrix:
 Charge =  0 Multiplicity = 1

 SCF Done:  E(UB3LYP) =  -512.758577133     A.U. after   12 cycles
 Normal termination of Gaussian 16 at Tue Jan  3 09:08:49 2023.
 Gaussian 16:  ES64L-G16RevC.01  3-Jul-2019

 ----------------------------------------------------------------------
 #p ub3lyp/chkbasis force guess=read geom=check scf=(maxcycle=900,veryt
 ightlineq,xqc) integral=grid=ultrafine symmetry=None density=current p
 op=(cm5,hlygat,mbs,npa) output=wfx
 ----------------------------------------------------------------------

 0005_q000_m01_k00_opt_uwb97xd_def2svpd/0005_q000_m01_k00_force_ub3lyp_
 def2tzvpd stable-force
 ----------------------------------------------------------------------
 Structure from the checkpoint file:  "0005_q000_m01_k00_force_ub3lyp_def2tzvpd.chk"
 Charge =  0 Multiplicity = 1

                          Input orientation:
 ---------------------------------------------------------------------
 Center     Atomic      Atomic             Coordinates (Angstroms)
 Number     Number       Type             X           Y           Z
 ---------------------------------------------------------------------
      1          6           0        0.977025   -0.019796   -0.100827
      2         16           0        2.588002   -0.034566   -0.126439
      3          8           0        3.171240   -0.714312   -1.316494
      4          1           0        0.518072    0.471588    0.758898
      5          1           0        0.370802   -0.470204   -0.889047
 ---------------------------------------------------------------------

 SCF Done:  E(UB3LYP) =  -512.758577133     A.U. after    1 cycles

 Alpha  occ. eigenvalues --  -88.97158 -19.13310 -10.22833  -8.03683  -5.99838
 Alpha  occ. eigenvalues --   -5.99821  -5.99407  -1.04550  -0.80403  -0.60852
 Alpha  occ. eigenvalues --   -0.49359  -0.46676  -0.42323  -0.39547  -0.29285
 Alpha  occ. eigenvalues --   -0.28094
 Alpha virt. eigenvalues --   -0.09440  -0.00213   0.00160   0.01840   0.03230
 Alpha virt. eigenvalues --    0.04100   0.06838   0.07965   0.09378   0.11210
 Alpha virt. eigenvalues --    0.11919   0.12536   0.14649   0.15674   0.17035

  Beta  occ. eigenvalues --  -88.97158 -19.13310 -10.22833  -8.03683  -5.99838
  Beta  occ. eigenvalues --   -5.99821  -5.99407  -1.04550  -0.80403  -0.60852
  Beta  occ. eigenvalues --   -0.49359  -0.46676  -0.42323  -0.39547  -0.29285
  Beta  occ. eigenvalues --   -0.28094
  Beta virt. eigenvalues --   -0.09440  -0.00213   0.00160   0.01840   0.03230
  Beta virt. eigenvalues --    0.04100   0.06838   0.07965   0.09378   0.11210
  Beta virt. eigenvalues --    0.11919   0.12536   0.14649   0.15674   0.17035

 Mulliken charges and spin densities:
               1          2
     1  C   -0.388080  -0.000000
     2  S    0.373245   0.000000
     3  O   -0.496087  -0.000000
     4  H    0.265671   0.000000
     5  H    0.245251   0.000000
 Sum of Mulliken charges =  -0.00000  -0.00000

 Dipole moment (field-independent basis, Debye):
    X=             -2.3415    Y=              1.0622    Z=              1.8594  Tot=              3.1731
 Quadrupole moment (field-independent basis, Debye-Ang):
   XX=            -33.8481   YY=            -25.6880   ZZ=            -27.2520
   XY=              3.6609   XZ=              6.5638   YZ=             -1.1871

 ESP charges:
               1
     1  C   -0.317715
     2  S    0.302125
     3  O   -0.347944
     4  H    0.154113
     5  H    0.209422
 Sum of ESP charges =  -0.00000

 Summary of Natural Population Analysis:

                                       Natural Population
                Natural  -----------------------------------------------
    Atom  No    Charge         Core      Valence    Rydberg      Total
 -----------------------------------------------------------------------
      C    1   -0.36699      0.99978     2.35276    0.01445     3.36699
      S    2    0.56940      4.99927     2.35579    0.07554     7.43060
      O    3   -0.43633      0.99994     3.41464    0.02175     4.43633
      H    4    0.11539      0.00000     0.38221    0.00240     0.38461
      H    5    0.11852      0.00000     0.37962    0.00186     0.38148
 =======================================================================
   * Total *   -0.00000      6.99898     8.88502    0.11599    16.00000

 Normal termination of Gaussian 16 at Tue Jan  3 09:09:05 2023.
