 Gaussian 16, Revision C.01,

 ----------------------------------------------------------------------
 #p ub3lyp/gen stable=opt scf=(maxcycle=900,verytightlineq,xqc) integra
 l=grid=ultrafine symmetry=None density=current iop(99/18=-1) output=wf
 n
 ----------------------------------------------------------------------

 0005_q000_m01_k00_opt_uwb97xd_def2svpd/0005_q000_m01_k00_force_ub3lyp_
 def2svpd stable-force
 ----------------------------------------------------------------------
 Symbolic Z-matrix:
 Charge =  0 Multiplicity = 1

 SCF Done:  E(UB3LYP) =  -512.476372834     A.U. after   11 cycles
 Normal termination of Gaussian 16 at Tue Jan  3 09:08:03 2023.
 Gaussian 16:  ES64L-G16RevC.01  3-Jul-2019

 ----------------------------------------------------------------------
 #p ub3lyp/chkbasis force guess=read geom=check scf=(maxcycle=900,veryt
 ightlineq,xqc) integral=grid=ultrafine symmetry=None density=current p
 op=(cm5,hlygat,mbs,npa) output=wfx
 ----------------------------------------------------------------------

 0005_q000_m01_k00_opt_uwb97xd_def2svpd/0005_q000_m01_k00_force_ub3lyp_
 def2svpd stable-force
 ----------------------------------------------------------------------
 Structure from the checkpoint file:  "0005_q000_m01_k00_force_ub3lyp_def2svpd.chk"
 Charge =  0 Multiplicity = 1

                          Input orientation:
 ---------------------------------------------------------------------
 Center     Atomic      Atomic             Coordinates (Angstroms)
 Number     Number       Type             X           Y           Z
 ---------------------------------------------------------------------
      1          6           0        0.977025   -0.019796   -0.100827
      2         16           0        2.588002   -0.034566   -0.126439
      3          8           0        3.171240   -0.714312   -1.316494
      4          1           0        0.518072    0.471588    0.758898
      5          1           0        0.370802   -0.470204   -0.889047
 ---------------------------------------------------------------------

 SCF Done:  E(UB3LYP) =  -512.476372834     A.U. after    1 cycles

 Alpha  occ. eigenvalues --  -88.98078 -19.14432 -10.24510  -8.06077  -6.02897
 Alpha  occ. eigenvalues --   -6.02690  -6.02326  -1.04490  -0.80499  -0.60669
 Alpha  occ. eigenvalues --   -0.49672  -0.47050  -0.42824  -0.39817  -0.29263
 Alpha  occ. eigenvalues --   -0.28246
 Alpha virt. eigenvalues --   -0.09676   0.00418   0.01125   0.03164   0.05193
 Alpha virt. eigenvalues --    0.05525   0.08067   0.10282   0.12706   0.14702
 Alpha virt. eigenvalues --    0.15288   0.16621   0.18464   0.19929   0.21414

  Beta  occ. eigenvalues --  -88.98078 -19.14432 -10.24510  -8.06077  -6.02897
  Beta  occ. eigenvalues --   -6.02690  -6.02326  -1.04490  -0.80499  -0.60669
  Beta  occ. eigenvalues --   -0.49672  -0.47050  -0.42824  -0.39817  -0.29263
  Beta  occ. eigenvalues --   -0.28246
  Beta virt. eigenvalues --   -0.09676   0.00418   0.01125   0.03164   0.05193
  Beta virt. eigenvalues --    0.05525   0.08067   0.10282   0.12706   0.14702
  Beta virt. eigenvalues --    0.15288   0.16621   0.18464   0.19929   0.21414

 Mulliken charges and spin densities:
               1          2
     1  C    0.463562  -0.000000
     2  S    0.432862   0.000000
     3  O   -0.623323  -0.000000
     4  H   -0.135002   0.000000
     5  H   -0.138098  -0.000000
 Sum of Mulliken charges =   0.00000  -0.00000

 Dipole moment (field-independent basis, Debye):
    X=             -2.4247    Y=              1.0972    Z=              1.9206  Tot=              3.2820
 Quadrupole moment (field-independent basis, Debye-Ang):
   XX=            -34.4298   YY=            -25.9203   ZZ=            -27.5469
   XY=              3.7686   XZ=              6.7579   YZ=             -1.2356

 ESP charges:
               1
     1  C   -0.302944
     2  S    0.303415
     3  O   -0.357652
     4  H    0.151364
     5  H    0.205817
 Sum of ESP charges =  -0.00000

 Summary of Natural Population Analysis:

                                       Natural Population
                Natural  -----------------------------------------------
    Atom  No    Charge         Core      Valence    Rydberg      Total
 -----------------------------------------------------------------------
      C    1   -0.36807      0.99977     2.35624    0.01206     3.36807
      S    2    0.56235      4.99922     2.37237    0.06606     7.43765
      O    3   -0.44211      0.99992     3.42430    0.01789     4.44211
      H    4    0.12403      0.00000     0.37296    0.00301     0.37597
      H    5    0.12380      0.00000     0.37267    0.00352     0.37620
 =======================================================================
   * Total *    0.00000      6.99891     8.89856    0.10254    16.00000

 Normal termination of Gaussian 16 at Tue Jan  3 09:08:23 2023.
