 Gaussian 16, Revision C.01,

 ----------------------------------------------------------------------
 #p uwb97xd/gen stable=opt scf=(maxcycle=900,verytightlineq,xqc) integr
 al=grid=ultrafine symmetry=None density=current iop(99/18=-1) output=w
 fn
 ----------------------------------------------------------------------

 0005_q000_m01_k00_opt_uwb97xd_def2svpd/0005_q000_m01_k00_force_uwb97xd
 _def2tzvpd stable-force
 ----------------------------------------------------------------------
 Symbolic Z-matrix:
 Charge =  0 Multiplicity = 1

 SCF Done:  E(UwB97XD) =  -512.694072151     A.U. after   13 cycles
 Normal termination of Gaussian 16 at Tue Jan  3 09:10:02 2023.
 Gaussian 16:  ES64L-G16RevC.01  3-Jul-2019

 ----------------------------------------------------------------------
 #p uwb97xd/chkbasis force guess=read geom=check scf=(maxcycle=900,very
 tightlineq,xqc) integral=grid=ultrafine symmetry=None density=current
 pop=(cm5,hlygat,mbs,npa) output=wfx
 ----------------------------------------------------------------------

 0005_q000_m01_k00_opt_uwb97xd_def2svpd/0005_q000_m01_k00_force_uwb97xd
 _def2tzvpd stable-force
 ----------------------------------------------------------------------
 Structure from the checkpoint file:  "0005_q000_m01_k00_force_uwb97xd_def2tzvpd.chk"
 Charge =  0 Multiplicity = 1

                          Input orientation:
 ---------------------------------------------------------------------
 Center     Atomic      Atomic             Coordinates (Angstroms)
 Number     Number       Type             X           Y           Z
 ---------------------------------------------------------------------
      1          6           0        0.977025   -0.019796   -0.100827
      2         16           0        2.588002   -0.034566   -0.126439
      3          8           0        3.171240   -0.714312   -1.316494
      4          1           0        0.518072    0.471588    0.758898
      5          1           0        0.370802   -0.470204   -0.889047
 ---------------------------------------------------------------------

 SCF Done:  E(UwB97XD) =  -512.694072151     A.U. after    1 cycles

 Alpha  occ. eigenvalues --  -89.13666 -19.25214 -10.34058  -8.15810  -6.10494
 Alpha  occ. eigenvalues --   -6.10474  -6.10050  -1.14259  -0.89989  -0.69853
 Alpha  occ. eigenvalues --   -0.57874  -0.54991  -0.50791  -0.47584  -0.37090
 Alpha  occ. eigenvalues --   -0.35491
 Alpha virt. eigenvalues --   -0.02048   0.06010   0.06380   0.06770   0.07668
 Alpha virt. eigenvalues --    0.09785   0.12275   0.14243   0.15782   0.17274
 Alpha virt. eigenvalues --    0.17888   0.18496   0.21703   0.21705   0.23821

  Beta  occ. eigenvalues --  -89.13666 -19.25214 -10.34058  -8.15810  -6.10494
  Beta  occ. eigenvalues --   -6.10474  -6.10050  -1.14259  -0.89989  -0.69853
  Beta  occ. eigenvalues --   -0.57874  -0.54991  -0.50791  -0.47584  -0.37090
  Beta  occ. eigenvalues --   -0.35491
  Beta virt. eigenvalues --   -0.02048   0.06010   0.06380   0.06770   0.07668
  Beta virt. eigenvalues --    0.09785   0.12275   0.14243   0.15782   0.17274
  Beta virt. eigenvalues --    0.17888   0.18496   0.21703   0.21705   0.23821

 Mulliken charges and spin densities:
               1          2
     1  C   -0.519815   0.000000
     2  S    0.372096   0.000000
     3  O   -0.524389   0.000000
     4  H    0.354116   0.000000
     5  H    0.317991   0.000000
 Sum of Mulliken charges =   0.00000   0.00000

 Dipole moment (field-independent basis, Debye):
    X=             -2.4091    Y=              1.0756    Z=              1.8828  Tot=              3.2412
 Quadrupole moment (field-independent basis, Debye-Ang):
   XX=            -33.7363   YY=            -25.4819   ZZ=            -27.0011
   XY=              3.6936   XZ=              6.6255   YZ=             -1.1473

 ESP charges:
               1
     1  C   -0.348449
     2  S    0.306117
     3  O   -0.350579
     4  H    0.169443
     5  H    0.223468
 Sum of ESP charges =  -0.00000

 Summary of Natural Population Analysis:

                                       Natural Population
                Natural  -----------------------------------------------
    Atom  No    Charge         Core      Valence    Rydberg      Total
 -----------------------------------------------------------------------
      C    1   -0.37190      0.99978     2.35727    0.01484     3.37190
      S    2    0.57370      4.99928     2.35181    0.07520     7.42630
      O    3   -0.44049      0.99994     3.41811    0.02244     4.44049
      H    4    0.11750      0.00000     0.38047    0.00203     0.38250
      H    5    0.12119      0.00000     0.37717    0.00164     0.37881
 =======================================================================
   * Total *    0.00000      6.99901     8.88483    0.11616    16.00000

 Normal termination of Gaussian 16 at Tue Jan  3 09:10:25 2023.
