 Gaussian 16, Revision C.01,

 ----------------------------------------------------------------------
 #p ub3lyp/gen stable=opt scf=(maxcycle=900,verytightlineq,xqc) integra
 l=grid=ultrafine symmetry=None density=current iop(99/18=-1) output=wf
 n
 ----------------------------------------------------------------------

 0005_q000_m01_k00_opt_uwb97xd_def2svpd/0005_q000_m01_k00_force_ub3lyp_
 def2qzvpd stable-force
 ----------------------------------------------------------------------
 Symbolic Z-matrix:
 Charge =  0 Multiplicity = 1

 SCF Done:  E(UB3LYP) =  -512.779592195     A.U. after   11 cycles
 Normal termination of Gaussian 16 at Tue Jan  3 09:17:49 2023.
 Gaussian 16:  ES64L-G16RevC.01  3-Jul-2019

 ----------------------------------------------------------------------
 #p ub3lyp/chkbasis force guess=read geom=check scf=(maxcycle=900,veryt
 ightlineq,xqc) integral=grid=ultrafine symmetry=None density=current p
 op=(cm5,hlygat,mbs,npa) output=wfx
 ----------------------------------------------------------------------

 0005_q000_m01_k00_opt_uwb97xd_def2svpd/0005_q000_m01_k00_force_ub3lyp_
 def2qzvpd stable-force
 ----------------------------------------------------------------------
 Structure from the checkpoint file:  "0005_q000_m01_k00_force_ub3lyp_def2qzvpd.chk"
 Charge =  0 Multiplicity = 1

                          Input orientation:
 ---------------------------------------------------------------------
 Center     Atomic      Atomic             Coordinates (Angstroms)
 Number     Number       Type             X           Y           Z
 ---------------------------------------------------------------------
      1          6           0        0.977025   -0.019796   -0.100827
      2         16           0        2.588002   -0.034566   -0.126439
      3          8           0        3.171240   -0.714312   -1.316494
      4          1           0        0.518072    0.471588    0.758898
      5          1           0        0.370802   -0.470204   -0.889047
 ---------------------------------------------------------------------

 SCF Done:  E(UB3LYP) =  -512.779592195     A.U. after    1 cycles

 Alpha  occ. eigenvalues --  -88.96707 -19.13256 -10.23029  -8.03695  -5.99865
 Alpha  occ. eigenvalues --   -5.99840  -5.99446  -1.04483  -0.80367  -0.60842
 Alpha  occ. eigenvalues --   -0.49340  -0.46650  -0.42311  -0.39536  -0.29295
 Alpha  occ. eigenvalues --   -0.28099
 Alpha virt. eigenvalues --   -0.09472  -0.00511  -0.00211   0.01323   0.02498
 Alpha virt. eigenvalues --    0.03435   0.05809   0.07134   0.08579   0.09586
 Alpha virt. eigenvalues --    0.10111   0.10670   0.12715   0.13801   0.14746

  Beta  occ. eigenvalues --  -88.96707 -19.13256 -10.23029  -8.03695  -5.99865
  Beta  occ. eigenvalues --   -5.99840  -5.99446  -1.04483  -0.80367  -0.60842
  Beta  occ. eigenvalues --   -0.49340  -0.46650  -0.42311  -0.39536  -0.29295
  Beta  occ. eigenvalues --   -0.28099
  Beta virt. eigenvalues --   -0.09472  -0.00511  -0.00211   0.01323   0.02498
  Beta virt. eigenvalues --    0.03435   0.05809   0.07134   0.08579   0.09586
  Beta virt. eigenvalues --    0.10111   0.10670   0.12715   0.13801   0.14746

 Mulliken charges and spin densities:
               1          2
     1  C   -0.262925   0.000000
     2  S    0.407450   0.000000
     3  O   -0.506503   0.000000
     4  H    0.182770  -0.000000
     5  H    0.179208  -0.000000
 Sum of Mulliken charges =  -0.00000   0.00000

 Dipole moment (field-independent basis, Debye):
    X=             -2.3359    Y=              1.0636    Z=              1.8619  Tot=              3.1709
 Quadrupole moment (field-independent basis, Debye-Ang):
   XX=            -33.8207   YY=            -25.6593   ZZ=            -27.2432
   XY=              3.6672   XZ=              6.5744   YZ=             -1.2037

 ESP charges:
               1
     1  C   -0.310799
     2  S    0.301932
     3  O   -0.348670
     4  H    0.150979
     5  H    0.206558
 Sum of ESP charges =  -0.00000

 Summary of Natural Population Analysis:

                                       Natural Population
                Natural  -----------------------------------------------
    Atom  No    Charge         Core      Valence    Rydberg      Total
 -----------------------------------------------------------------------
      C    1   -0.37087      0.99979     2.35726    0.01382     3.37087
      S    2    0.57392      4.99928     2.35189    0.07491     7.42608
      O    3   -0.43936      0.99993     3.41600    0.02343     4.43936
      H    4    0.11647      0.00000     0.38122    0.00232     0.38353
      H    5    0.11985      0.00000     0.37759    0.00257     0.38015
 =======================================================================
   * Total *   -0.00000      6.99901     8.88396    0.11704    16.00000

 Normal termination of Gaussian 16 at Tue Jan  3 09:19:27 2023.
