 Gaussian 16, Revision C.01,

 ----------------------------------------------------------------------
 #p uhf/gen stable=opt scf=(maxcycle=900,verytightlineq,xqc) integral=g
 rid=ultrafine symmetry=None density=current iop(99/18=-1) output=wfn
 ----------------------------------------------------------------------

 0005_q000_m01_k00_opt_uwb97xd_def2svpd/0005_q000_m01_k00_force_uhf_def
 2qzvpd stable-force
 ----------------------------------------------------------------------
 Symbolic Z-matrix:
 Charge =  0 Multiplicity = 1

 SCF Done:  E(UHF) =  -511.436276472     A.U. after   13 cycles
 SCF Done:  E(UHF) =  -511.441873681     a.u. after    6 cycles
 Normal termination of Gaussian 16 at Tue Jan  3 09:34:30 2023.
 Gaussian 16:  ES64L-G16RevC.01  3-Jul-2019

 ----------------------------------------------------------------------
 #p uhf/chkbasis force guess=read geom=check scf=(maxcycle=900,verytigh
 tlineq,xqc) integral=grid=ultrafine symmetry=None density=current pop=
 (cm5,hlygat,mbs,npa) output=wfx
 ----------------------------------------------------------------------

 0005_q000_m01_k00_opt_uwb97xd_def2svpd/0005_q000_m01_k00_force_uhf_def
 2qzvpd stable-force
 ----------------------------------------------------------------------
 Structure from the checkpoint file:  "0005_q000_m01_k00_force_uhf_def2qzvpd.chk"
 Charge =  0 Multiplicity = 1

                          Input orientation:
 ---------------------------------------------------------------------
 Center     Atomic      Atomic             Coordinates (Angstroms)
 Number     Number       Type             X           Y           Z
 ---------------------------------------------------------------------
      1          6           0        0.977025   -0.019796   -0.100827
      2         16           0        2.588002   -0.034566   -0.126439
      3          8           0        3.171240   -0.714312   -1.316494
      4          1           0        0.518072    0.471588    0.758898
      5          1           0        0.370802   -0.470204   -0.889047
 ---------------------------------------------------------------------

 SCF Done:  E(UHF) =  -511.441873682     A.U. after    1 cycles

 Alpha  occ. eigenvalues --  -92.06789 -20.54783 -11.29599  -9.05885  -6.74114
 Alpha  occ. eigenvalues --   -6.74038  -6.73350  -1.35252  -1.07525  -0.80935
 Alpha  occ. eigenvalues --   -0.66521  -0.63337  -0.54344  -0.54069  -0.43217
 Alpha  occ. eigenvalues --   -0.39933
 Alpha virt. eigenvalues --    0.04663   0.05066   0.05269   0.06350   0.06418
 Alpha virt. eigenvalues --    0.10204   0.12608   0.13013   0.14749   0.16431
 Alpha virt. eigenvalues --    0.17423   0.18553   0.20608   0.21106   0.21730

  Beta  occ. eigenvalues --  -92.07229 -20.56346 -11.28008  -9.06334  -6.75135
  Beta  occ. eigenvalues --   -6.74414  -6.74208  -1.38630  -1.06048  -0.81127
  Beta  occ. eigenvalues --   -0.65958  -0.63670  -0.61267  -0.55544  -0.44550
  Beta  occ. eigenvalues --   -0.40726
  Beta virt. eigenvalues --    0.04704   0.05096   0.05309   0.06377   0.06942
  Beta virt. eigenvalues --    0.10202   0.12643   0.12922   0.14506   0.16140
  Beta virt. eigenvalues --    0.17599   0.18288   0.20972   0.21121   0.23622

 Mulliken charges and spin densities:
               1          2
     1  C   -0.314759   0.819180
     2  S    0.486914  -0.426491
     3  O   -0.588426  -0.283911
     4  H    0.211038  -0.046033
     5  H    0.205233  -0.062745
 Sum of Mulliken charges =  -0.00000   0.00000

 Dipole moment (field-independent basis, Debye):
    X=             -2.8440    Y=              1.1898    Z=              2.0826  Tot=              3.7204
 Quadrupole moment (field-independent basis, Debye-Ang):
   XX=            -35.8809   YY=            -25.7256   ZZ=            -27.5868
   XY=              4.0582   XZ=              7.2924   YZ=             -1.4226

 ESP charges:
               1
     1  C   -0.236576
     2  S    0.277950
     3  O   -0.383697
     4  H    0.144785
     5  H    0.197538
 Sum of ESP charges =  -0.00000

 Summary of Natural Population Analysis:

                                       Natural Population
                Natural  -----------------------------------------------
    Atom  No    Charge         Core      Valence    Rydberg      Total
 -----------------------------------------------------------------------
      C    1    0.03593      0.99978     1.94503    0.01926     2.96407
      S    2    0.38453      4.99932     2.53971    0.07644     7.61547
      O    3   -0.60525      0.99994     3.57842    0.02690     4.60525
      H    4    0.08995      0.00000     0.40817    0.00188     0.41005
      H    5    0.09484      0.00000     0.40352    0.00163     0.40516
 =======================================================================
   * Total *    0.00000      6.99904     8.87485    0.12611    16.00000

 Normal termination of Gaussian 16 at Tue Jan  3 09:35:58 2023.
