 Gaussian 16, Revision C.01,

 ----------------------------------------------------------------------
 #p uwb97xd/gen stable=opt scf=(maxcycle=900,verytightlineq,xqc) integr
 al=grid=ultrafine symmetry=None density=current iop(99/18=-1) output=w
 fn
 ----------------------------------------------------------------------

 0005_q000_m01_k00_opt_uwb97xd_def2svpd/0005_q000_m01_k00_force_uwb97xd
 _def2tzvp stable-force
 ----------------------------------------------------------------------
 Symbolic Z-matrix:
 Charge =  0 Multiplicity = 1

 SCF Done:  E(UwB97XD) =  -512.691864872     A.U. after   16 cycles
 Normal termination of Gaussian 16 at Tue Jan  3 09:08:51 2023.
 Gaussian 16:  ES64L-G16RevC.01  3-Jul-2019

 ----------------------------------------------------------------------
 #p uwb97xd/chkbasis force guess=read geom=check scf=(maxcycle=900,very
 tightlineq,xqc) integral=grid=ultrafine symmetry=None density=current
 pop=(cm5,hlygat,mbs,npa) output=wfx
 ----------------------------------------------------------------------

 0005_q000_m01_k00_opt_uwb97xd_def2svpd/0005_q000_m01_k00_force_uwb97xd
 _def2tzvp stable-force
 ----------------------------------------------------------------------
 Structure from the checkpoint file:  "0005_q000_m01_k00_force_uwb97xd_def2tzvp.chk"
 Charge =  0 Multiplicity = 1

                          Input orientation:
 ---------------------------------------------------------------------
 Center     Atomic      Atomic             Coordinates (Angstroms)
 Number     Number       Type             X           Y           Z
 ---------------------------------------------------------------------
      1          6           0        0.977025   -0.019796   -0.100827
      2         16           0        2.588002   -0.034566   -0.126439
      3          8           0        3.171240   -0.714312   -1.316494
      4          1           0        0.518072    0.471588    0.758898
      5          1           0        0.370802   -0.470204   -0.889047
 ---------------------------------------------------------------------

 SCF Done:  E(UwB97XD) =  -512.691864872     A.U. after    1 cycles

 Alpha  occ. eigenvalues --  -89.13400 -19.24767 -10.33797  -8.15550  -6.10230
 Alpha  occ. eigenvalues --   -6.10217  -6.09783  -1.13977  -0.89776  -0.69644
 Alpha  occ. eigenvalues --   -0.57680  -0.54742  -0.50575  -0.47340  -0.36820
 Alpha  occ. eigenvalues --   -0.35245
 Alpha virt. eigenvalues --   -0.01747   0.09092   0.13418   0.16457   0.18400
 Alpha virt. eigenvalues --    0.21978   0.28125   0.28177   0.34587   0.36657
 Alpha virt. eigenvalues --    0.37652   0.39954   0.43857   0.46843   0.48229

  Beta  occ. eigenvalues --  -89.13400 -19.24767 -10.33797  -8.15550  -6.10230
  Beta  occ. eigenvalues --   -6.10217  -6.09783  -1.13977  -0.89776  -0.69644
  Beta  occ. eigenvalues --   -0.57680  -0.54742  -0.50575  -0.47340  -0.36820
  Beta  occ. eigenvalues --   -0.35245
  Beta virt. eigenvalues --   -0.01747   0.09092   0.13418   0.16457   0.18400
  Beta virt. eigenvalues --    0.21978   0.28125   0.28177   0.34587   0.36657
  Beta virt. eigenvalues --    0.37652   0.39954   0.43857   0.46843   0.48229

 Mulliken charges and spin densities:
               1          2
     1  C   -0.328389   0.000000
     2  S    0.458418   0.000000
     3  O   -0.478164   0.000000
     4  H    0.163884   0.000000
     5  H    0.184251   0.000000
 Sum of Mulliken charges =   0.00000   0.00000

 Dipole moment (field-independent basis, Debye):
    X=             -2.3506    Y=              1.1082    Z=              1.9400  Tot=              3.2430
 Quadrupole moment (field-independent basis, Debye-Ang):
   XX=            -33.4856   YY=            -25.2727   ZZ=            -26.8224
   XY=              3.7601   XZ=              6.7381   YZ=             -1.1689

 ESP charges:
               1
     1  C   -0.349598
     2  S    0.318915
     3  O   -0.356651
     4  H    0.170325
     5  H    0.217009
 Sum of ESP charges =  -0.00000

 Summary of Natural Population Analysis:

                                       Natural Population
                Natural  -----------------------------------------------
    Atom  No    Charge         Core      Valence    Rydberg      Total
 -----------------------------------------------------------------------
      C    1   -0.37853      0.99978     2.36419    0.01456     3.37853
      S    2    0.57084      4.99929     2.35551    0.07437     7.42916
      O    3   -0.43153      0.99994     3.41370    0.01788     4.43153
      H    4    0.11790      0.00000     0.38155    0.00054     0.38210
      H    5    0.12133      0.00000     0.37781    0.00086     0.37867
 =======================================================================
   * Total *    0.00000      6.99901     8.89277    0.10822    16.00000

 Normal termination of Gaussian 16 at Tue Jan  3 09:09:03 2023.
