 Gaussian 16, Revision C.01,

 ----------------------------------------------------------------------
 #p uwb97xd/gen stable=opt scf=(maxcycle=900,verytightlineq,xqc) integr
 al=grid=ultrafine symmetry=None density=current iop(99/18=-1) output=w
 fn
 ----------------------------------------------------------------------

 0005_q000_m01_k00_opt_uwb97xd_def2svpd/0005_q000_m01_k00_force_uwb97xd
 _def2qzvpd stable-force
 ----------------------------------------------------------------------
 Symbolic Z-matrix:
 Charge =  0 Multiplicity = 1

 SCF Done:  E(UwB97XD) =  -512.713938547     A.U. after   13 cycles
 Normal termination of Gaussian 16 at Tue Jan  3 09:23:52 2023.
 Gaussian 16:  ES64L-G16RevC.01  3-Jul-2019

 ----------------------------------------------------------------------
 #p uwb97xd/chkbasis force guess=read geom=check scf=(maxcycle=900,very
 tightlineq,xqc) integral=grid=ultrafine symmetry=None density=current
 pop=(cm5,hlygat,mbs,npa) output=wfx
 ----------------------------------------------------------------------

 0005_q000_m01_k00_opt_uwb97xd_def2svpd/0005_q000_m01_k00_force_uwb97xd
 _def2qzvpd stable-force
 ----------------------------------------------------------------------
 Structure from the checkpoint file:  "0005_q000_m01_k00_force_uwb97xd_def2qzvpd.chk"
 Charge =  0 Multiplicity = 1

                          Input orientation:
 ---------------------------------------------------------------------
 Center     Atomic      Atomic             Coordinates (Angstroms)
 Number     Number       Type             X           Y           Z
 ---------------------------------------------------------------------
      1          6           0        0.977025   -0.019796   -0.100827
      2         16           0        2.588002   -0.034566   -0.126439
      3          8           0        3.171240   -0.714312   -1.316494
      4          1           0        0.518072    0.471588    0.758898
      5          1           0        0.370802   -0.470204   -0.889047
 ---------------------------------------------------------------------

 SCF Done:  E(UwB97XD) =  -512.713938547     A.U. after    1 cycles

 Alpha  occ. eigenvalues --  -89.13464 -19.25210 -10.34246  -8.15866  -6.10558
 Alpha  occ. eigenvalues --   -6.10537  -6.10129  -1.14183  -0.89954  -0.69844
 Alpha  occ. eigenvalues --   -0.57851  -0.54960  -0.50780  -0.47564  -0.37092
 Alpha  occ. eigenvalues --   -0.35488
 Alpha virt. eigenvalues --   -0.02081   0.04875   0.05268   0.06003   0.06241
 Alpha virt. eigenvalues --    0.08937   0.10361   0.12516   0.14481   0.14693
 Alpha virt. eigenvalues --    0.15775   0.16326   0.19296   0.19594   0.21108

  Beta  occ. eigenvalues --  -89.13464 -19.25210 -10.34246  -8.15866  -6.10558
  Beta  occ. eigenvalues --   -6.10537  -6.10129  -1.14183  -0.89954  -0.69844
  Beta  occ. eigenvalues --   -0.57851  -0.54960  -0.50780  -0.47564  -0.37092
  Beta  occ. eigenvalues --   -0.35488
  Beta virt. eigenvalues --   -0.02081   0.04875   0.05268   0.06003   0.06241
  Beta virt. eigenvalues --    0.08937   0.10361   0.12516   0.14481   0.14693
  Beta virt. eigenvalues --    0.15775   0.16326   0.19296   0.19594   0.21108

 Mulliken charges and spin densities:
               1          2
     1  C   -0.294494  -0.000000
     2  S    0.381057   0.000000
     3  O   -0.554557  -0.000000
     4  H    0.255179   0.000000
     5  H    0.212815  -0.000000
 Sum of Mulliken charges =  -0.00000   0.00000

 Dipole moment (field-independent basis, Debye):
    X=             -2.4094    Y=              1.0745    Z=              1.8809  Tot=              3.2400
 Quadrupole moment (field-independent basis, Debye-Ang):
   XX=            -33.7251   YY=            -25.4483   ZZ=            -26.9892
   XY=              3.6920   XZ=              6.6228   YZ=             -1.1659

 ESP charges:
               1
     1  C   -0.340088
     2  S    0.304155
     3  O   -0.350570
     4  H    0.166047
     5  H    0.220457
 Sum of ESP charges =  -0.00000

 Summary of Natural Population Analysis:

                                       Natural Population
                Natural  -----------------------------------------------
    Atom  No    Charge         Core      Valence    Rydberg      Total
 -----------------------------------------------------------------------
      C    1   -0.37516      0.99979     2.36086    0.01450     3.37516
      S    2    0.57790      4.99929     2.34830    0.07451     7.42210
      O    3   -0.44395      0.99994     3.41962    0.02439     4.44395
      H    4    0.11837      0.00000     0.37949    0.00214     0.38163
      H    5    0.12283      0.00000     0.37524    0.00193     0.37717
 =======================================================================
   * Total *   -0.00000      6.99902     8.88351    0.11747    16.00000

 Normal termination of Gaussian 16 at Tue Jan  3 09:26:37 2023.
