 Gaussian 16, Revision C.01,

 ----------------------------------------------------------------------
 #p uhf/gen stable=opt scf=(maxcycle=900,verytightlineq,xqc) integral=g
 rid=ultrafine symmetry=None density=current iop(99/18=-1) output=wfn
 ----------------------------------------------------------------------

 0001_q000_m01_k00_opt_uwb97xd_def2svpd/0001_q000_m01_k00_force_uhf_def
 2qzvp stable-force
 ----------------------------------------------------------------------
 Symbolic Z-matrix:
 Charge =  0 Multiplicity = 1

 SCF Done:  E(UHF) =  -149.048543481     A.U. after   14 cycles
 SCF Done:  E(UHF) =  -149.064143899     a.u. after   11 cycles
 Normal termination of Gaussian 16 at Tue Jan  3 09:37:49 2023.
 Gaussian 16:  ES64L-G16RevC.01  3-Jul-2019

 ----------------------------------------------------------------------
 #p uhf/chkbasis force guess=read geom=check scf=(maxcycle=900,verytigh
 tlineq,xqc) integral=grid=ultrafine symmetry=None density=current pop=
 (cm5,hlygat,mbs,npa) output=wfx
 ----------------------------------------------------------------------

 0001_q000_m01_k00_opt_uwb97xd_def2svpd/0001_q000_m01_k00_force_uhf_def
 2qzvp stable-force
 ----------------------------------------------------------------------
 Structure from the checkpoint file:  "0001_q000_m01_k00_force_uhf_def2qzvp.chk"
 Charge =  0 Multiplicity = 1

                          Input orientation:
 ---------------------------------------------------------------------
 Center     Atomic      Atomic             Coordinates (Angstroms)
 Number     Number       Type             X           Y           Z
 ---------------------------------------------------------------------
      1          6           0        1.072617   -0.070199   -0.153013
      2          7           0        2.377944   -0.089746   -0.254385
      3          7           0        3.083355   -0.368470   -1.308729
      4          1           0        4.064049   -0.292670   -1.047637
      5          1           0        0.639963    0.185154    0.808526
      6          1           0        0.483044   -0.309980   -1.033725
      7          1           0        2.867498    0.145880    0.613132
 ---------------------------------------------------------------------

 SCF Done:  E(UHF) =  -149.064143899     A.U. after    1 cycles

 Alpha  occ. eigenvalues --  -15.65029 -15.54643 -11.25332  -1.34057  -1.05982
 Alpha  occ. eigenvalues --   -0.85359  -0.75238  -0.64825  -0.57456  -0.56303
 Alpha  occ. eigenvalues --   -0.43379  -0.29952
 Alpha virt. eigenvalues --    0.08833   0.13160   0.14593   0.14614   0.17680
 Alpha virt. eigenvalues --    0.21430   0.23080   0.27968   0.29264   0.30316
 Alpha virt. eigenvalues --    0.35306   0.39112   0.40627   0.42037   0.44558

  Beta  occ. eigenvalues --  -15.65659 -15.56927 -11.23454  -1.36293  -1.08244
  Beta  occ. eigenvalues --   -0.83992  -0.75301  -0.64901  -0.61293  -0.56864
  Beta  occ. eigenvalues --   -0.46209  -0.35593
  Beta virt. eigenvalues --    0.08810   0.12826   0.13367   0.14644   0.17801
  Beta virt. eigenvalues --    0.21436   0.28145   0.28432   0.29627   0.30402
  Beta virt. eigenvalues --    0.34410   0.38807   0.38957   0.41091   0.44467

 Mulliken charges and spin densities:
               1          2
     1  C   -0.169979   0.960671
     2  N   -0.065044  -0.155041
     3  N   -0.355608  -0.699113
     4  H    0.160392   0.051851
     5  H    0.102140  -0.092709
     6  H    0.124899  -0.081217
     7  H    0.203200   0.015556
 Sum of Mulliken charges =  -0.00000   0.00000

 Dipole moment (field-independent basis, Debye):
    X=              0.4813    Y=              0.7472    Z=              2.7750  Tot=              2.9139
 Quadrupole moment (field-independent basis, Debye-Ang):
   XX=            -13.0484   YY=            -21.3168   ZZ=            -22.3434
   XY=              2.0951   XZ=              7.6943   YZ=             -0.3583

 ESP charges:
               1
     1  C   -0.595307
     2  N    0.257147
     3  N   -0.655538
     4  H    0.312620
     5  H    0.197290
     6  H    0.269475
     7  H    0.214313
 Sum of ESP charges =   0.00000

 Summary of Natural Population Analysis:

                                       Natural Population
                Natural  -----------------------------------------------
    Atom  No    Charge         Core      Valence    Rydberg      Total
 -----------------------------------------------------------------------
      C    1    0.32080      0.99972     1.66608    0.01341     2.67920
      N    2   -0.25030      0.99976     2.73386    0.01667     3.75030
      N    3   -0.56297      0.99983     3.04381    0.01932     4.06297
      H    4    0.16639      0.00000     0.33200    0.00161     0.33361
      H    5    0.06415      0.00000     0.43521    0.00063     0.43585
      H    6    0.07019      0.00000     0.42897    0.00085     0.42981
      H    7    0.19174      0.00000     0.30611    0.00215     0.30826
 =======================================================================
   * Total *    0.00000      2.99931     8.94604    0.05464    12.00000

 Normal termination of Gaussian 16 at Tue Jan  3 09:39:40 2023.
