 Gaussian 16, Revision C.01,

 ----------------------------------------------------------------------
 #p ub3lyp/gen stable=opt scf=(maxcycle=900,verytightlineq,xqc) integra
 l=grid=ultrafine symmetry=None density=current iop(99/18=-1) output=wf
 n
 ----------------------------------------------------------------------

 0001_q000_m01_k00_opt_uwb97xd_def2svpd/0001_q000_m01_k00_force_ub3lyp_
 def2svp stable-force
 ----------------------------------------------------------------------
 Symbolic Z-matrix:
 Charge =  0 Multiplicity = 1

 SCF Done:  E(UB3LYP) =  -149.813412587     A.U. after   14 cycles
 Normal termination of Gaussian 16 at Tue Jan  3 09:03:37 2023.
 Gaussian 16:  ES64L-G16RevC.01  3-Jul-2019

 ----------------------------------------------------------------------
 #p ub3lyp/chkbasis force guess=read geom=check scf=(maxcycle=900,veryt
 ightlineq,xqc) integral=grid=ultrafine symmetry=None density=current p
 op=(cm5,hlygat,mbs,npa) output=wfx
 ----------------------------------------------------------------------

 0001_q000_m01_k00_opt_uwb97xd_def2svpd/0001_q000_m01_k00_force_ub3lyp_
 def2svp stable-force
 ----------------------------------------------------------------------
 Structure from the checkpoint file:  "0001_q000_m01_k00_force_ub3lyp_def2svp.chk"
 Charge =  0 Multiplicity = 1

                          Input orientation:
 ---------------------------------------------------------------------
 Center     Atomic      Atomic             Coordinates (Angstroms)
 Number     Number       Type             X           Y           Z
 ---------------------------------------------------------------------
      1          6           0        1.072617   -0.070199   -0.153013
      2          7           0        2.377944   -0.089746   -0.254385
      3          7           0        3.083355   -0.368470   -1.308729
      4          1           0        4.064049   -0.292670   -1.047637
      5          1           0        0.639963    0.185154    0.808526
      6          1           0        0.483044   -0.309980   -1.033725
      7          1           0        2.867498    0.145880    0.613132
 ---------------------------------------------------------------------

 SCF Done:  E(UB3LYP) =  -149.813412587     A.U. after    1 cycles

 Alpha  occ. eigenvalues --  -14.44378 -14.30119 -10.20278  -1.02460  -0.79633
 Alpha  occ. eigenvalues --   -0.63658  -0.55736  -0.47830  -0.42571  -0.41206
 Alpha  occ. eigenvalues --   -0.26840  -0.18988
 Alpha virt. eigenvalues --   -0.00995   0.02263   0.10189   0.11611   0.14173
 Alpha virt. eigenvalues --    0.24590   0.33727   0.43353   0.47324   0.49547
 Alpha virt. eigenvalues --    0.51658   0.58187   0.64053   0.66902   0.67473

  Beta  occ. eigenvalues --  -14.44378 -14.30119 -10.20278  -1.02460  -0.79633
  Beta  occ. eigenvalues --   -0.63658  -0.55736  -0.47830  -0.42571  -0.41206
  Beta  occ. eigenvalues --   -0.26840  -0.18988
  Beta virt. eigenvalues --   -0.00995   0.02263   0.10189   0.11611   0.14173
  Beta virt. eigenvalues --    0.24590   0.33727   0.43353   0.47324   0.49547
  Beta virt. eigenvalues --    0.51658   0.58187   0.64053   0.66902   0.67473

 Mulliken charges and spin densities:
               1          2
     1  C   -0.077813   0.000000
     2  N    0.048865   0.000000
     3  N   -0.242541  -0.000000
     4  H    0.075247  -0.000000
     5  H    0.029279  -0.000000
     6  H    0.043541  -0.000000
     7  H    0.123423  -0.000000
 Sum of Mulliken charges =   0.00000   0.00000

 Dipole moment (field-independent basis, Debye):
    X=              0.6478    Y=              0.8015    Z=              2.9737  Tot=              3.1472
 Quadrupole moment (field-independent basis, Debye-Ang):
   XX=            -12.5680   YY=            -20.5437   ZZ=            -22.3260
   XY=              2.2347   XZ=              8.2444   YZ=             -0.5812

 ESP charges:
               1
     1  C   -0.630120
     2  N    0.396072
     3  N   -0.708885
     4  H    0.308229
     5  H    0.190305
     6  H    0.249734
     7  H    0.194665
 Sum of ESP charges =   0.00000

 Summary of Natural Population Analysis:

                                       Natural Population
                Natural  -----------------------------------------------
    Atom  No    Charge         Core      Valence    Rydberg      Total
 -----------------------------------------------------------------------
      C    1   -0.13277      0.99966     2.11977    0.01333     3.13277
      N    2   -0.11827      0.99962     2.61068    0.00797     3.61827
      N    3   -0.28187      0.99979     2.76817    0.01392     3.78187
      H    4    0.15468      0.00000     0.34270    0.00261     0.34532
      H    5    0.09324      0.00000     0.40567    0.00109     0.40676
      H    6    0.09926      0.00000     0.39896    0.00178     0.40074
      H    7    0.18573      0.00000     0.31061    0.00366     0.31427
 =======================================================================
   * Total *    0.00000      2.99907     8.95656    0.04437    12.00000

 Normal termination of Gaussian 16 at Tue Jan  3 09:03:44 2023.
