 Gaussian 16, Revision C.01,

 ----------------------------------------------------------------------
 #p ub3lyp/gen stable=opt scf=(maxcycle=900,verytightlineq,xqc) integra
 l=grid=ultrafine symmetry=None density=current iop(99/18=-1) output=wf
 n
 ----------------------------------------------------------------------

 0001_q000_m01_k00_opt_uwb97xd_def2svpd/0001_q000_m01_k00_force_ub3lyp_
 def2qzvp stable-force
 ----------------------------------------------------------------------
 Symbolic Z-matrix:
 Charge =  0 Multiplicity = 1

 SCF Done:  E(UB3LYP) =  -150.005937647     A.U. after   14 cycles
 Normal termination of Gaussian 16 at Tue Jan  3 09:18:05 2023.
 Gaussian 16:  ES64L-G16RevC.01  3-Jul-2019

 ----------------------------------------------------------------------
 #p ub3lyp/chkbasis force guess=read geom=check scf=(maxcycle=900,veryt
 ightlineq,xqc) integral=grid=ultrafine symmetry=None density=current p
 op=(cm5,hlygat,mbs,npa) output=wfx
 ----------------------------------------------------------------------

 0001_q000_m01_k00_opt_uwb97xd_def2svpd/0001_q000_m01_k00_force_ub3lyp_
 def2qzvp stable-force
 ----------------------------------------------------------------------
 Structure from the checkpoint file:  "0001_q000_m01_k00_force_ub3lyp_def2qzvp.chk"
 Charge =  0 Multiplicity = 1

                          Input orientation:
 ---------------------------------------------------------------------
 Center     Atomic      Atomic             Coordinates (Angstroms)
 Number     Number       Type             X           Y           Z
 ---------------------------------------------------------------------
      1          6           0        1.072617   -0.070199   -0.153013
      2          7           0        2.377944   -0.089746   -0.254385
      3          7           0        3.083355   -0.368470   -1.308729
      4          1           0        4.064049   -0.292670   -1.047637
      5          1           0        0.639963    0.185154    0.808526
      6          1           0        0.483044   -0.309980   -1.033725
      7          1           0        2.867498    0.145880    0.613132
 ---------------------------------------------------------------------

 SCF Done:  E(UB3LYP) =  -150.005937647     A.U. after    1 cycles

 Alpha  occ. eigenvalues --  -14.44128 -14.30522 -10.20070  -1.04283  -0.81166
 Alpha  occ. eigenvalues --   -0.64831  -0.56952  -0.48805  -0.43416  -0.42269
 Alpha  occ. eigenvalues --   -0.28714  -0.20462
 Alpha virt. eigenvalues --   -0.03001  -0.00968   0.04627   0.05889   0.09059
 Alpha virt. eigenvalues --    0.12262   0.13705   0.16668   0.18819   0.20256
 Alpha virt. eigenvalues --    0.22731   0.25061   0.26836   0.27835   0.31725

  Beta  occ. eigenvalues --  -14.44128 -14.30522 -10.20070  -1.04283  -0.81166
  Beta  occ. eigenvalues --   -0.64831  -0.56952  -0.48805  -0.43416  -0.42269
  Beta  occ. eigenvalues --   -0.28714  -0.20462
  Beta virt. eigenvalues --   -0.03001  -0.00968   0.04627   0.05889   0.09059
  Beta virt. eigenvalues --    0.12262   0.13705   0.16668   0.18819   0.20256
  Beta virt. eigenvalues --    0.22731   0.25061   0.26836   0.27835   0.31725

 Mulliken charges and spin densities:
               1          2
     1  C   -0.094189  -0.000000
     2  N    0.029527  -0.000000
     3  N   -0.337186   0.000000
     4  H    0.111227  -0.000000
     5  H    0.055600   0.000000
     6  H    0.080852   0.000000
     7  H    0.154169  -0.000000
 Sum of Mulliken charges =  -0.00000  -0.00000

 Dipole moment (field-independent basis, Debye):
    X=              0.3026    Y=              0.7979    Z=              2.9680  Tot=              3.0882
 Quadrupole moment (field-independent basis, Debye-Ang):
   XX=            -14.3123   YY=            -21.5208   ZZ=            -22.8805
   XY=              2.3131   XZ=              8.5071   YZ=             -0.4569

 ESP charges:
               1
     1  C   -0.609305
     2  N    0.319127
     3  N   -0.692424
     4  H    0.297746
     5  H    0.191862
     6  H    0.276098
     7  H    0.216896
 Sum of ESP charges =   0.00000

 Summary of Natural Population Analysis:

                                       Natural Population
                Natural  -----------------------------------------------
    Atom  No    Charge         Core      Valence    Rydberg      Total
 -----------------------------------------------------------------------
      C    1   -0.14444      0.99973     2.12955    0.01516     3.14444
      N    2   -0.10758      0.99977     2.59534    0.01247     3.60758
      N    3   -0.29457      0.99982     2.77530    0.01946     3.79457
      H    4    0.15751      0.00000     0.34031    0.00218     0.34249
      H    5    0.09710      0.00000     0.40161    0.00129     0.40290
      H    6    0.10324      0.00000     0.39528    0.00148     0.39676
      H    7    0.18873      0.00000     0.30853    0.00273     0.31127
 =======================================================================
   * Total *    0.00000      2.99931     8.94592    0.05477    12.00000

 Normal termination of Gaussian 16 at Tue Jan  3 09:20:11 2023.
