 Gaussian 16, Revision C.01,

 ----------------------------------------------------------------------
 #p uhf/gen stable=opt scf=(maxcycle=900,verytightlineq,xqc) integral=g
 rid=ultrafine symmetry=None density=current iop(99/18=-1) output=wfn
 ----------------------------------------------------------------------

 0001_q000_m01_k00_opt_uwb97xd_def2svpd/0001_q000_m01_k00_force_uhf_def
 2svp stable-force
 ----------------------------------------------------------------------
 Symbolic Z-matrix:
 Charge =  0 Multiplicity = 1

 SCF Done:  E(UHF) =  -148.860522214     A.U. after   13 cycles
 SCF Done:  E(UHF) =  -148.879776977     a.u. after   11 cycles
 Normal termination of Gaussian 16 at Tue Jan  3 09:03:37 2023.
 Gaussian 16:  ES64L-G16RevC.01  3-Jul-2019

 ----------------------------------------------------------------------
 #p uhf/chkbasis force guess=read geom=check scf=(maxcycle=900,verytigh
 tlineq,xqc) integral=grid=ultrafine symmetry=None density=current pop=
 (cm5,hlygat,mbs,npa) output=wfx
 ----------------------------------------------------------------------

 0001_q000_m01_k00_opt_uwb97xd_def2svpd/0001_q000_m01_k00_force_uhf_def
 2svp stable-force
 ----------------------------------------------------------------------
 Structure from the checkpoint file:  "0001_q000_m01_k00_force_uhf_def2svp.chk"
 Charge =  0 Multiplicity = 1

                          Input orientation:
 ---------------------------------------------------------------------
 Center     Atomic      Atomic             Coordinates (Angstroms)
 Number     Number       Type             X           Y           Z
 ---------------------------------------------------------------------
      1          6           0        1.072617   -0.070199   -0.153013
      2          7           0        2.377944   -0.089746   -0.254385
      3          7           0        3.083355   -0.368470   -1.308729
      4          1           0        4.064049   -0.292670   -1.047637
      5          1           0        0.639963    0.185154    0.808526
      6          1           0        0.483044   -0.309980   -1.033725
      7          1           0        2.867498    0.145880    0.613132
 ---------------------------------------------------------------------

 SCF Done:  E(UHF) =  -148.879776977     A.U. after    1 cycles

 Alpha  occ. eigenvalues --  -15.64218 -15.54036 -11.25272  -1.32342  -1.04562
 Alpha  occ. eigenvalues --   -0.84168  -0.74723  -0.64505  -0.56963  -0.56337
 Alpha  occ. eigenvalues --   -0.42654  -0.29441
 Alpha virt. eigenvalues --    0.15889   0.19196   0.22336   0.24461   0.27139
 Alpha virt. eigenvalues --    0.39727   0.55862   0.61197   0.67222   0.67838
 Alpha virt. eigenvalues --    0.74825   0.81478   0.87472   0.92269   0.94532

  Beta  occ. eigenvalues --  -15.64745 -15.56548 -11.23188  -1.34432  -1.06767
  Beta  occ. eigenvalues --   -0.82821  -0.74729  -0.64453  -0.60943  -0.56274
  Beta  occ. eigenvalues --   -0.45693  -0.35209
  Beta virt. eigenvalues --    0.15760   0.18273   0.22961   0.24514   0.27361
  Beta virt. eigenvalues --    0.40745   0.54192   0.63010   0.67781   0.75885
  Beta virt. eigenvalues --    0.77334   0.82462   0.88846   0.92946   0.93988

 Mulliken charges and spin densities:
               1          2
     1  C   -0.026517   0.970339
     2  N   -0.174262  -0.136299
     3  N   -0.189495  -0.733232
     4  H    0.107679   0.045505
     5  H    0.058335  -0.079795
     6  H    0.072686  -0.076138
     7  H    0.151575   0.009620
 Sum of Mulliken charges =  -0.00000  -0.00000

 Dipole moment (field-independent basis, Debye):
    X=              0.7304    Y=              0.7520    Z=              2.7872  Tot=              2.9778
 Quadrupole moment (field-independent basis, Debye-Ang):
   XX=            -11.7107   YY=            -20.7483   ZZ=            -22.1642
   XY=              2.0460   XZ=              7.5283   YZ=             -0.4724

 ESP charges:
               1
     1  C   -0.628197
     2  N    0.326070
     3  N   -0.684381
     4  H    0.332021
     5  H    0.201907
     6  H    0.259582
     7  H    0.192998
 Sum of ESP charges =   0.00000

 Summary of Natural Population Analysis:

                                       Natural Population
                Natural  -----------------------------------------------
    Atom  No    Charge         Core      Valence    Rydberg      Total
 -----------------------------------------------------------------------
      C    1    0.33669      0.99970     1.65135    0.01227     2.66331
      N    2   -0.25015      0.99965     2.73982    0.01068     3.75015
      N    3   -0.57652      0.99981     3.06147    0.01524     4.07652
      H    4    0.16911      0.00000     0.32812    0.00277     0.33089
      H    5    0.06223      0.00000     0.43677    0.00100     0.43777
      H    6    0.06797      0.00000     0.43068    0.00135     0.43203
      H    7    0.19066      0.00000     0.30615    0.00319     0.30934
 =======================================================================
   * Total *   -0.00000      2.99915     8.95437    0.04648    12.00000

 Normal termination of Gaussian 16 at Tue Jan  3 09:03:41 2023.
