 Gaussian 16, Revision C.01,

 ----------------------------------------------------------------------
 #p ub3lyp/gen stable=opt scf=(maxcycle=900,verytightlineq,xqc) integra
 l=grid=ultrafine symmetry=None density=current iop(99/18=-1) output=wf
 n
 ----------------------------------------------------------------------

 0001_q000_m01_k00_opt_uwb97xd_def2svpd/0001_q000_m01_k00_force_ub3lyp_
 def2tzvp stable-force
 ----------------------------------------------------------------------
 Symbolic Z-matrix:
 Charge =  0 Multiplicity = 1

 SCF Done:  E(UB3LYP) =  -149.992521263     A.U. after   14 cycles
 Normal termination of Gaussian 16 at Tue Jan  3 09:04:38 2023.
 Gaussian 16:  ES64L-G16RevC.01  3-Jul-2019

 ----------------------------------------------------------------------
 #p ub3lyp/chkbasis force guess=read geom=check scf=(maxcycle=900,veryt
 ightlineq,xqc) integral=grid=ultrafine symmetry=None density=current p
 op=(cm5,hlygat,mbs,npa) output=wfx
 ----------------------------------------------------------------------

 0001_q000_m01_k00_opt_uwb97xd_def2svpd/0001_q000_m01_k00_force_ub3lyp_
 def2tzvp stable-force
 ----------------------------------------------------------------------
 Structure from the checkpoint file:  "0001_q000_m01_k00_force_ub3lyp_def2tzvp.chk"
 Charge =  0 Multiplicity = 1

                          Input orientation:
 ---------------------------------------------------------------------
 Center     Atomic      Atomic             Coordinates (Angstroms)
 Number     Number       Type             X           Y           Z
 ---------------------------------------------------------------------
      1          6           0        1.072617   -0.070199   -0.153013
      2          7           0        2.377944   -0.089746   -0.254385
      3          7           0        3.083355   -0.368470   -1.308729
      4          1           0        4.064049   -0.292670   -1.047637
      5          1           0        0.639963    0.185154    0.808526
      6          1           0        0.483044   -0.309980   -1.033725
      7          1           0        2.867498    0.145880    0.613132
 ---------------------------------------------------------------------

 SCF Done:  E(UB3LYP) =  -149.992521263     A.U. after    1 cycles

 Alpha  occ. eigenvalues --  -14.43707 -14.29983 -10.19608  -1.04107  -0.80995
 Alpha  occ. eigenvalues --   -0.64689  -0.56792  -0.48631  -0.43206  -0.42086
 Alpha  occ. eigenvalues --   -0.28417  -0.20163
 Alpha virt. eigenvalues --   -0.02526   0.00242   0.07530   0.08666   0.11496
 Alpha virt. eigenvalues --    0.15704   0.19794   0.22843   0.26583   0.27555
 Alpha virt. eigenvalues --    0.33998   0.35966   0.37955   0.40775   0.41386

  Beta  occ. eigenvalues --  -14.43707 -14.29983 -10.19608  -1.04107  -0.80995
  Beta  occ. eigenvalues --   -0.64689  -0.56792  -0.48631  -0.43206  -0.42086
  Beta  occ. eigenvalues --   -0.28417  -0.20163
  Beta virt. eigenvalues --   -0.02526   0.00242   0.07530   0.08666   0.11496
  Beta virt. eigenvalues --    0.15704   0.19794   0.22843   0.26583   0.27555
  Beta virt. eigenvalues --    0.33998   0.35966   0.37955   0.40775   0.41386

 Mulliken charges and spin densities:
               1          2
     1  C   -0.236936   0.000000
     2  N    0.018526  -0.000000
     3  N   -0.430884   0.000000
     4  H    0.178165  -0.000000
     5  H    0.124056  -0.000000
     6  H    0.131758   0.000000
     7  H    0.215315  -0.000000
 Sum of Mulliken charges =  -0.00000   0.00000

 Dipole moment (field-independent basis, Debye):
    X=              0.4039    Y=              0.8107    Z=              3.0135  Tot=              3.1467
 Quadrupole moment (field-independent basis, Debye-Ang):
   XX=            -13.6678   YY=            -21.4438   ZZ=            -22.7827
   XY=              2.3258   XZ=              8.5556   YZ=             -0.4525

 ESP charges:
               1
     1  C   -0.653403
     2  N    0.333680
     3  N   -0.705534
     4  H    0.309177
     5  H    0.207075
     6  H    0.287600
     7  H    0.221405
 Sum of ESP charges =   0.00000

 Summary of Natural Population Analysis:

                                       Natural Population
                Natural  -----------------------------------------------
    Atom  No    Charge         Core      Valence    Rydberg      Total
 -----------------------------------------------------------------------
      C    1   -0.14777      0.99972     2.13401    0.01404     3.14777
      N    2   -0.09805      0.99975     2.58625    0.01205     3.59805
      N    3   -0.28302      0.99982     2.76408    0.01913     3.78302
      H    4    0.15167      0.00000     0.34716    0.00117     0.34833
      H    5    0.09453      0.00000     0.40472    0.00074     0.40547
      H    6    0.10064      0.00000     0.39826    0.00110     0.39936
      H    7    0.18201      0.00000     0.31680    0.00120     0.31799
 =======================================================================
   * Total *   -0.00000      2.99928     8.95129    0.04943    12.00000

 Normal termination of Gaussian 16 at Tue Jan  3 09:04:49 2023.
