 Gaussian 16, Revision C.01,

 ----------------------------------------------------------------------
 #p uwb97xd/gen stable=opt scf=(maxcycle=900,verytightlineq,xqc) integr
 al=grid=ultrafine symmetry=None density=current iop(99/18=-1) output=w
 fn
 ----------------------------------------------------------------------

 0001_q000_m01_k00_opt_uwb97xd_def2svpd/0001_q000_m01_k00_force_uwb97xd
 _def2qzvp stable-force
 ----------------------------------------------------------------------
 Symbolic Z-matrix:
 Charge =  0 Multiplicity = 1

 SCF Done:  E(UwB97XD) =  -149.944763788     A.U. after   14 cycles
 Normal termination of Gaussian 16 at Tue Jan  3 09:23:57 2023.
 Gaussian 16:  ES64L-G16RevC.01  3-Jul-2019

 ----------------------------------------------------------------------
 #p uwb97xd/chkbasis force guess=read geom=check scf=(maxcycle=900,very
 tightlineq,xqc) integral=grid=ultrafine symmetry=None density=current
 pop=(cm5,hlygat,mbs,npa) output=wfx
 ----------------------------------------------------------------------

 0001_q000_m01_k00_opt_uwb97xd_def2svpd/0001_q000_m01_k00_force_uwb97xd
 _def2qzvp stable-force
 ----------------------------------------------------------------------
 Structure from the checkpoint file:  "0001_q000_m01_k00_force_uwb97xd_def2qzvp.chk"
 Charge =  0 Multiplicity = 1

                          Input orientation:
 ---------------------------------------------------------------------
 Center     Atomic      Atomic             Coordinates (Angstroms)
 Number     Number       Type             X           Y           Z
 ---------------------------------------------------------------------
      1          6           0        1.072617   -0.070199   -0.153013
      2          7           0        2.377944   -0.089746   -0.254385
      3          7           0        3.083355   -0.368470   -1.308729
      4          1           0        4.064049   -0.292670   -1.047637
      5          1           0        0.639963    0.185154    0.808526
      6          1           0        0.483044   -0.309980   -1.033725
      7          1           0        2.867498    0.145880    0.613132
 ---------------------------------------------------------------------

 SCF Done:  E(UwB97XD) =  -149.944763788     A.U. after    1 cycles

 Alpha  occ. eigenvalues --  -14.56127 -14.41841 -10.31072  -1.14161  -0.90593
 Alpha  occ. eigenvalues --   -0.73899  -0.65623  -0.57071  -0.52031  -0.50342
 Alpha  occ. eigenvalues --   -0.36657  -0.27518
 Alpha virt. eigenvalues --    0.04499   0.06717   0.12039   0.13381   0.16332
 Alpha virt. eigenvalues --    0.19730   0.21447   0.24680   0.26462   0.28089
 Alpha virt. eigenvalues --    0.31309   0.32257   0.35362   0.35618   0.39719

  Beta  occ. eigenvalues --  -14.56127 -14.41841 -10.31072  -1.14161  -0.90593
  Beta  occ. eigenvalues --   -0.73899  -0.65623  -0.57071  -0.52031  -0.50342
  Beta  occ. eigenvalues --   -0.36657  -0.27518
  Beta virt. eigenvalues --    0.04499   0.06717   0.12039   0.13381   0.16332
  Beta virt. eigenvalues --    0.19730   0.21447   0.24680   0.26462   0.28089
  Beta virt. eigenvalues --    0.31309   0.32257   0.35362   0.35618   0.39719

 Mulliken charges and spin densities:
               1          2
     1  C   -0.149289   0.000000
     2  N    0.037362  -0.000000
     3  N   -0.389608   0.000000
     4  H    0.135845   0.000000
     5  H    0.087916  -0.000000
     6  H    0.094012   0.000000
     7  H    0.183762   0.000000
 Sum of Mulliken charges =  -0.00000   0.00000

 Dipole moment (field-independent basis, Debye):
    X=              0.2615    Y=              0.8237    Z=              3.0649  Tot=              3.1844
 Quadrupole moment (field-independent basis, Debye-Ang):
   XX=            -14.1262   YY=            -21.3645   ZZ=            -22.7035
   XY=              2.3860   XZ=              8.7728   YZ=             -0.4532

 ESP charges:
               1
     1  C   -0.609247
     2  N    0.295160
     3  N   -0.702196
     4  H    0.303877
     5  H    0.196876
     6  H    0.282008
     7  H    0.233521
 Sum of ESP charges =   0.00000

 Summary of Natural Population Analysis:

                                       Natural Population
                Natural  -----------------------------------------------
    Atom  No    Charge         Core      Valence    Rydberg      Total
 -----------------------------------------------------------------------
      C    1   -0.14894      0.99973     2.13504    0.01416     3.14894
      N    2   -0.10279      0.99977     2.59035    0.01267     3.60279
      N    3   -0.30302      0.99982     2.78375    0.01945     3.80302
      H    4    0.15843      0.00000     0.33964    0.00193     0.34157
      H    5    0.09848      0.00000     0.40039    0.00113     0.40152
      H    6    0.10536      0.00000     0.39334    0.00130     0.39464
      H    7    0.19247      0.00000     0.30531    0.00222     0.30753
 =======================================================================
   * Total *   -0.00000      2.99932     8.94782    0.05286    12.00000

 Normal termination of Gaussian 16 at Tue Jan  3 09:27:19 2023.
